LAMMPS (27 Oct 2021)
OMP_NUM_THREADS environment is not set. Defaulting to 1 thread. (src/comm.cpp:98)
  using 1 OpenMP thread(s) per MPI task
package gpu 0
package gpu 2 neigh no pair/only on
#Lammps gcmc code for electrolytes

## ----- Simulation times ----- ##
    variable t_nve      equal 50000             #nve/limit
    variable t_deform 	equal 50000            #nvt
    variable t_pressed 	equal 50000            #nvt
    variable t_relaxed 	equal 100000            #nvt
    variable t_eq 	equal 10000000           #nvt

    variable smallc	equal 10
    variable bigc	equal -80
    variable numB	equal 256
    variable numS	equal ${numB}*8
    variable numS	equal 256*8
#    variable numCl	equal ${numS}*${smallc}+${bigc}*${numB}

## ----- Environment setting ----- ##
    boundary p p p
    atom_style full

## ----- System Variables  ----- ##
    variable    ttemp       equal   $b          	#reduced temperature
    variable    ttemp       equal   1.68          	
    variable    ppress      equal   0			#osmetic pressure
    variable    cutoff_pppm equal   27.8	        #cutoff for the real part of pppm
    variable	ipress      equal   0.1

    variable    bigd        equal   10                      #LJ sigmas
    variable    smalld      equal   2
#    variable    Cl_d        equal   0.4
    variable    d_bs        equal   0.5*(${bigd}+${smalld})
    variable    d_bs        equal   0.5*(10+${smalld})
    variable    d_bs        equal   0.5*(10+2)
#    variable    d_sNa       equal   0.5*(v_smalld+v_Na_d)
#    variable    d_sCl       equal   0.5*(v_smalld+v_Cl_d)
#    variable    d_bNa       equal   0.5*(v_bigd+v_Na_d)
#    variable    d_bCl       equal   0.5*(v_bigd+v_Cl_d)
#    variable    d_NaCl      equal   0.5*(v_Na_d+v_Cl_d)

    variable    cut_small   equal   ${smalld}*1.122462	    #cutoffs for LJ
    variable    cut_small   equal   2*1.122462	    
    variable    cut_big     equal   ${bigd}*1.122462
    variable    cut_big     equal   10*1.122462
#    variable    cut_Na_d    equal   ${Na_d}*1.122462
#    variable    cut_Cl_d    equal   ${Cl_d}*1.122462
    variable    cut_bs      equal   ${d_bs}*1.122462
    variable    cut_bs      equal   6*1.122462
#    variable    cut_bNa     equal   ${d_bNa}*1.122462
#    variable    cut_bCl     equal   ${d_bCl}*1.122462
#    variable    cut_sNa     equal   ${d_sNa}*1.122462
#    variable    cut_sCl     equal   ${d_sCl}*1.122462
#    variable    cut_NaCl    equal   ${d_NaCl}*1.122462

## ----- Initialization and grouping ----- ##
    read_data config_fcc8.dat
Reading data file ...
  orthogonal box = (-80.000000 -80.000000 -80.000000) to (80.000000 80.000000 80.000000)
  2 by 2 by 2 MPI processor grid
  reading atoms ...
  2304 atoms
Finding 1-2 1-3 1-4 neighbors ...
  special bond factors lj:    0        0        0       
  special bond factors coul:  0        0        0       
     0 = max # of 1-2 neighbors
     0 = max # of 1-3 neighbors
     0 = max # of 1-4 neighbors
     1 = max # of special neighbors
  special bonds CPU = 0.044 seconds
  read_data CPU = 0.071 seconds

    set type 1 charge   ${bigc}    	#large NPs
    set type 1 charge   -80    	
Setting atom values ...
  256 settings made for charge
    set type 2 charge   ${smallc}       #small NPs
    set type 2 charge   10       
Setting atom values ...
  2048 settings made for charge
#    set type 3 charge   1       #Na+
#    set type 3 charge   -1      #Cl-

    mass    *   0.2
    mass    1   25.0

    group big       type 1
256 atoms in group big
    group small     type 2
2048 atoms in group small
#    group cation    type 3
#    group anion     type 3

## ----- Interaction setting ----- ##
    pair_style lj/cut/coul/long ${cut_big} ${cutoff_pppm} #lj/cut/coul/long/soft 2.0 0.5 5.0 ${cut_small} ${cutoff_pppm}
    pair_style lj/cut/coul/long 11.22462 ${cutoff_pppm} 
    pair_style lj/cut/coul/long 11.22462 27.8 
    #Between regular particles (4*5/2=10)
    pair_coeff  1   1   2.0     ${bigd}     ${cut_big}	        # big-big
    pair_coeff  1   1   2.0     10     ${cut_big}	        
    pair_coeff  1   1   2.0     10     11.22462	        
    pair_coeff  2   2   2.0     ${smalld}   ${cut_small}	    # small-small
    pair_coeff  2   2   2.0     2   ${cut_small}	    
    pair_coeff  2   2   2.0     2   2.244924	    
#    pair_coeff  3   3   2.0     ${Na_d}     ${cut_Na_d}		    # Na-Na
#    pair_coeff  3   3   2.0     ${Cl_d}     ${cut_Cl_d}       	# Cl-Cl
    pair_coeff  1   2   2.0     ${d_bs}     ${cut_bs}	        # big-small
    pair_coeff  1   2   2.0     6     ${cut_bs}	        
    pair_coeff  1   2   2.0     6     6.734772	        
#    pair_coeff  1   3   2.0     ${d_bNa}    ${cut_bNa}	        # big-Na
#    pair_coeff  1   3   2.0     ${d_bCl}    ${cut_bCl}	        # big-Cl
#    pair_coeff  2   3   2.0     ${d_sNa}    ${cut_sNa}       	# small-Na
#    pair_coeff  2   3   2.0     ${d_sCl}    ${cut_sCl}       	# small-Cl
#    pair_coeff  3   4   2.0     ${d_NaCl}   ${cut_NaCl}       	# Na-Cl
#    pair_modify pair lj/cut/coul/long shift yes
    pair_modify shift yes
    kspace_style	pppm	5.0e-4

## ----- Simulation setup ----- ##
    neighbor 1.2 bin
    neigh_modify delay 0 every 1 check yes #one 2000

    compute temp all temp
    compute press all pressure temp

    thermo 5000
    thermo_style custom step pe temp c_press lx cpu
    thermo_modify norm no flush yes

   # dump moldump all custom 50000 ${xyzname} id type q x y z

## ----- Thermalization of system ----- ##
    timestep 0.0002

    fix 1 all nve/limit 0.05
    fix 2 big langevin ${ttemp} ${ttemp} 0.2 1234567
    fix 2 big langevin 1.68 ${ttemp} 0.2 1234567
    fix 2 big langevin 1.68 1.68 0.2 1234567
    fix 3 small langevin ${ttemp} ${ttemp} 0.008 123456
    fix 3 small langevin 1.68 ${ttemp} 0.008 123456
    fix 3 small langevin 1.68 1.68 0.008 123456

    fix freeze big setforce 0.0 0.0 0.0
    fix zeromom all momentum 1 linear 1 1 1 angular
    run ${t_nve}
    run 50000

CITE-CITE-CITE-CITE-CITE-CITE-CITE-CITE-CITE-CITE-CITE-CITE-CITE

Your simulation uses code contributions which should be cited:

- GPU package (short-range, long-range and three-body potentials):

@Article{Brown11,
 author = {W. M. Brown, P. Wang, S. J. Plimpton, A. N. Tharrington},
 title = {Implementing Molecular Dynamics on Hybrid High Performance Computers - Short Range Forces},
 journal = {Comp.~Phys.~Comm.},
 year =    2011,
 volume =  182,
 pages =   {898--911}
}

@Article{Brown12,
 author = {W. M. Brown, A. Kohlmeyer, S. J. Plimpton, A. N. Tharrington},
 title = {Implementing Molecular Dynamics on Hybrid High Performance Computers - Particle-Particle Particle-Mesh},
 journal = {Comp.~Phys.~Comm.},
 year =    2012,
 volume =  183,
 pages =   {449--459}
}

@Article{Brown13,
 author = {W. M. Brown, Y. Masako},
 title = {Implementing Molecular Dynamics on Hybrid High Performance Computers – Three-Body Potentials},
 journal = {Comp.~Phys.~Comm.},
 year =    2013,
 volume =  184,
 pages =   {2785--2793}
}

@Article{Trung15,
 author = {T. D. Nguyen, S. J. Plimpton},
 title = {Accelerating dissipative particle dynamics simulations for soft matter systems},
 journal = {Comput.~Mater.~Sci.},
 year =    2015,
 volume =  100,
 pages =   {173--180}
}

@Article{Trung17,
 author = {T. D. Nguyen},
 title = {GPU-accelerated Tersoff potentials for massively parallel Molecular Dynamics simulations},
 journal = {Comp.~Phys.~Comm.},
 year =    2017,
 volume =  212,
 pages =   {113--122}
}

@Article{Nikolskiy19,
 author = {V. Nikolskiy, V. Stegailov},
 title = {GPU acceleration of four-site water models in LAMMPS},
 journal = {Proceeding of the International Conference on Parallel Computing (ParCo 2019), Prague, Czech Republic},
 year =    2019
}

CITE-CITE-CITE-CITE-CITE-CITE-CITE-CITE-CITE-CITE-CITE-CITE-CITE

PPPM initialization ...
  using 12-bit tables for long-range coulomb (src/kspace.cpp:340)
  G vector (1/distance) = 0.11438956
  grid = 60 60 60
  stencil order = 5
  estimated absolute RMS force accuracy = 0.00041211524
  estimated relative force accuracy = 0.00041211524
  using double precision KISS FFT
  3d grid and FFT values/proc = 42875 28800
  generated 0 of 1 mixed pair_coeff terms from geometric mixing rule
Neighbor list info ...
  update every 1 steps, delay 0 steps, check yes
  max neighbors/atom: 2000, page size: 100000
  master list distance cutoff = 29
  ghost atom cutoff = 29
  binsize = 14.5, bins = 12 12 12
  1 neighbor lists, perpetual/occasional/extra = 1 0 0
  (1) pair lj/cut/coul/long/gpu, perpetual
      attributes: full, newton off
      pair build: full/bin
      stencil: full/bin/3d
      bin: standard
Per MPI rank memory allocation (min/avg/max) = 11.45 | 11.54 | 11.62 Mbytes
Step PotEng Temp c_press Lx CPU 
       0 1.7992005e+08            0    175.78446          160            0 
    5000   -68466.706    1.4977391 -0.0043102384          160     39.31827 
   10000   -73921.441    1.5638083 -0.0043843943          160    78.464598 
   15000    -78597.06    1.4675836 -0.0044758413          160    117.55531 
   20000   -82665.684    1.5420802 -0.0044558801          160    156.71458 
   25000   -86183.938    1.5203275 -0.0045332365          160    195.80366 
   30000   -89743.629    1.4941683 -0.0044504854          160    234.92926 
   35000   -93134.812    1.5130838 -0.0043416239          160    274.07357 
   40000   -95938.992    1.5188602 -0.0043687896          160    313.25653 
   45000   -98726.717    1.5401158 -0.0042464031          160     352.4842 
   50000   -101422.51    1.4756286 -0.0040176212          160     391.6895 
Loop time of 391.69 on 8 procs for 50000 steps with 2304 atoms

Performance: 2205.828 tau/day, 127.652 timesteps/s
99.7% CPU use with 8 MPI tasks x 1 OpenMP threads

MPI task timing breakdown:
Section |  min time  |  avg time  |  max time  |%varavg| %total
---------------------------------------------------------------
Pair    | 8.9757     | 9.3948     | 9.769      |  11.5 |  2.40
Bond    | 0.0047626  | 0.0091297  | 0.01222    |   2.1 |  0.00
Kspace  | 375.58     | 376.25     | 376.91     |   2.3 | 96.06
Neigh   | 0.058101   | 0.065682   | 0.074109   |   2.1 |  0.02
Comm    | 2.2974     | 2.6789     | 3.183      |  16.9 |  0.68
Output  | 0.00035824 | 0.00060923 | 0.0023384  |   0.0 |  0.00
Modify  | 2.7421     | 2.7953     | 2.853      |   2.3 |  0.71
Other   |            | 0.4927     |            |       |  0.13

Nlocal:        288.000 ave         313 max         260 min
Histogram: 2 0 0 1 0 2 1 0 0 2
Nghost:        1336.12 ave        1357 max        1306 min
Histogram: 1 1 0 0 1 1 1 0 0 3
Neighs:         0.00000 ave           0 max           0 min
Histogram: 8 0 0 0 0 0 0 0 0 0
FullNghs:      16547.5 ave       18852 max       14077 min
Histogram: 2 0 0 1 0 3 0 0 0 2

Total # of neighbors = 132380
Ave neighs/atom = 57.456597
Ave special neighs/atom = 0.0000000
Neighbor list builds = 71
Dangerous builds = 0

#    compute     peatom      all     pe/atom
#    variable    exppe       atom    exp(2*c_peatom/${ttemp})
#    compute     aveS        small   reduce ave v_exppe
#    compute     aveCl       anion   reduce ave v_exppe
#    compute     aveNa       cation  reduce ave v_exppe
#    thermo ${every}
#    thermo_style custom step pe temp lx vol c_aveS c_aveCl c_aveNa cpu
#    thermo_modify norm no flush yes
#    variable    chempNP     equal   temp*(ln(2304/vol)+ln(18300/vol)*10+ln(c_aveS)+ln(c_aveCl)*10)
#    variable    chempS      equal   temp*(ln(5500/vol)+ln(18300/vol)+ln(c_aveNa)+ln(c_aveCl))
#    label checking
#    run ${every}
#    if "${chempNP}>${mu_np}" then 'print "ChempNP=${chempNP}; expel"' "jump gcmc.in checking" else 'print "done!"'

    fix deforming all deform 10 x final -33 33 y final -33 33 z final -33 33 remap x
    run ${t_deform}
    run 50000
PPPM initialization ...
  using 12-bit tables for long-range coulomb (src/kspace.cpp:340)
  G vector (1/distance) = 0.11438956
  grid = 60 60 60
  stencil order = 5
  estimated absolute RMS force accuracy = 0.00041211524
  estimated relative force accuracy = 0.00041211524
  using double precision KISS FFT
  3d grid and FFT values/proc = 42875 28800
  generated 0 of 1 mixed pair_coeff terms from geometric mixing rule
Per MPI rank memory allocation (min/avg/max) = 11.45 | 11.54 | 11.62 Mbytes
Step PotEng Temp c_press Lx CPU 
   50000   -101422.51    1.4756286 -0.0040176212          160            0 
   55000   -107617.07    1.5458823 -0.0037347299        150.6     41.94794 
   60000   -114463.52    1.5092865 -0.0039969735        141.2    83.952543 
   65000   -121922.52    1.4905336 -0.0040012375        131.8    125.96289 
   70000   -130006.52    1.4932373 -0.0039179331        122.4    168.00633 
   75000   -138073.28    1.4652575 -0.00090500845          113    210.10098 
   80000   -146463.03    1.4661349 0.0027475636        103.6    252.25864 
   85000   -155306.25    1.4901643  0.010094408         94.2    294.54267 
   90000    -163833.7    1.5032845  0.029942465         84.8    336.97355 
   95000   -172487.53     1.509675   0.07435603         75.4    379.65277 
  100000   -182467.14    1.5388147   0.17205208           66    422.66239 
Loop time of 422.663 on 8 procs for 50000 steps with 2304 atoms

Performance: 2044.184 tau/day, 118.298 timesteps/s
99.7% CPU use with 8 MPI tasks x 1 OpenMP threads

MPI task timing breakdown:
Section |  min time  |  avg time  |  max time  |%varavg| %total
---------------------------------------------------------------
Pair    | 9.7715     | 10.214     | 10.646     |  11.9 |  2.42
Bond    | 0.0055535  | 0.0093814  | 0.01314    |   2.1 |  0.00
Kspace  | 376.04     | 376.69     | 377.39     |   2.7 | 89.12
Neigh   | 0.77956    | 0.85642    | 0.94621    |   5.9 |  0.20
Comm    | 3.6404     | 4.0761     | 4.4733     |  14.1 |  0.96
Output  | 0.00041984 | 0.0049349  | 0.011606   |   5.2 |  0.00
Modify  | 25.36      | 28.005     | 30.167     |  31.6 |  6.63
Other   |            | 2.811      |            |       |  0.67

Nlocal:        288.000 ave         305 max         269 min
Histogram: 2 0 0 0 1 1 2 0 1 1
Nghost:        5819.25 ave        5866 max        5782 min
Histogram: 2 0 0 2 1 1 0 0 1 1
Neighs:         0.00000 ave           0 max           0 min
Histogram: 8 0 0 0 0 0 0 0 0 0
FullNghs:      232634.0 ave      248229 max      216896 min
Histogram: 2 0 0 1 0 2 1 0 1 1

Total # of neighbors = 1861076
Ave neighs/atom = 807.75868
Ave special neighs/atom = 0.0000000
Neighbor list builds = 332
Dangerous builds = 0

    unfix 1
#    unfix 2
    unfix freeze
    unfix deforming

    timestep 0.002

    fix 1 all   nph	            iso ${ipress} ${ipress} 1.0
    fix 1 all   nph	            iso 0.1 ${ipress} 1.0
    fix 1 all   nph	            iso 0.1 0.1 1.0
    run ${t_pressed}
    run 50000
PPPM initialization ...
  using 12-bit tables for long-range coulomb (src/kspace.cpp:340)
  G vector (1/distance) = 0.1206864
  grid = 32 32 32
  stencil order = 5
  estimated absolute RMS force accuracy = 0.00049681107
  estimated relative force accuracy = 0.00049681107
  using double precision KISS FFT
  3d grid and FFT values/proc = 9261 4096
  generated 0 of 1 mixed pair_coeff terms from geometric mixing rule
Per MPI rank memory allocation (min/avg/max) = 9.332 | 9.333 | 9.334 Mbytes
Step PotEng Temp c_press Lx CPU 
  100000   -182428.07    1.5388147   0.17367592           66            0 
  105000   -200023.17     1.660526   0.10992138    61.857012    14.258256 
  110000   -201993.79     1.697117  0.099936635    60.876892    28.757861 
  115000   -203321.72    1.6437758   0.10005881    60.339371    43.436858 
  120000   -204157.36    1.6328259  0.098541658    60.140519    58.101266 
  125000   -204537.79    1.7174677  0.096601467    60.087482    72.792994 
  130000   -204934.48    1.7226136  0.092619586    60.030022    87.476569 
  135000   -205078.81    1.6993491   0.10271395    59.931533    102.17429 
  140000   -205021.31    1.6879539  0.096069645    60.049002    116.87275 
  145000   -205207.63    1.7252603  0.099721517    60.008726    131.58084 
  150000   -205480.99    1.6813109  0.091562382    60.006775    146.25883 
Loop time of 146.259 on 8 procs for 50000 steps with 2304 atoms

Performance: 59073.301 tau/day, 341.859 timesteps/s
97.9% CPU use with 8 MPI tasks x 1 OpenMP threads

MPI task timing breakdown:
Section |  min time  |  avg time  |  max time  |%varavg| %total
---------------------------------------------------------------
Pair    | 12.829     | 16.013     | 18.474     |  46.6 | 10.95
Bond    | 0.0043571  | 0.0051507  | 0.0064295  |   0.8 |  0.00
Kspace  | 68.467     | 69.103     | 69.911     |   6.6 | 47.25
Neigh   | 6.49       | 6.6441     | 7.0273     |   6.4 |  4.54
Comm    | 5.9712     | 6.0675     | 6.1281     |   2.0 |  4.15
Output  | 0.00031964 | 0.00047879 | 0.001568   |   0.0 |  0.00
Modify  | 42.864     | 45.547     | 46.819     |  19.8 | 31.14
Other   |            | 2.878      |            |       |  1.97

Nlocal:        288.000 ave         293 max         280 min
Histogram: 1 0 0 1 2 0 0 1 1 2
Nghost:        7257.50 ave        7286 max        7228 min
Histogram: 1 0 2 1 0 0 2 0 0 2
Neighs:         0.00000 ave           0 max           0 min
Histogram: 8 0 0 0 0 0 0 0 0 0
FullNghs:      314491.0 ave      320461 max      305510 min
Histogram: 1 0 0 1 2 0 0 1 1 2

Total # of neighbors = 2515928
Ave neighs/atom = 1091.9826
Ave special neighs/atom = 0.0000000
Neighbor list builds = 728
Dangerous builds = 0
    unfix 1
    fix 1 all   nph	            iso ${ipress} ${ppress} 1.0
    fix 1 all   nph	            iso 0.1 ${ppress} 1.0
    fix 1 all   nph	            iso 0.1 0 1.0
    run ${t_relaxed}
    run 100000
PPPM initialization ...
  using 12-bit tables for long-range coulomb (src/kspace.cpp:340)
  G vector (1/distance) = 0.12141105
  grid = 30 30 30
  stencil order = 5
  estimated absolute RMS force accuracy = 0.00050060155
  estimated relative force accuracy = 0.00050060155
  using double precision KISS FFT
  3d grid and FFT values/proc = 8000 3600
  generated 0 of 1 mixed pair_coeff terms from geometric mixing rule
Per MPI rank memory allocation (min/avg/max) = 9.789 | 9.806 | 9.813 Mbytes
Step PotEng Temp c_press Lx CPU 
  150000   -205480.85    1.6813109  0.091567648    60.006775            0 
  155000    -205567.6     1.652676  0.097951941    59.985927    14.072354 
  160000   -205606.53    1.6885418   0.08970389    60.071094    28.224054 
  165000   -205365.41    1.6736643  0.088369135    60.141204    42.407133 
  170000   -205628.62    1.6634209  0.081377371    60.166473    56.561726 
  175000   -205322.34    1.7094823  0.075384081    60.325882    70.682149 
  180000   -205681.03    1.7043654  0.066592504    60.330145    84.778499 
  185000   -205657.83    1.6929789  0.063239473    60.362884    98.833722 
  190000   -205718.58    1.6559602  0.058616519    60.422367    112.93696 
  195000   -205692.05    1.7089402   0.05389437    60.544187    127.04395 
  200000   -205525.14    1.6371344  0.051351779    60.560738    141.06684 
  205000   -205453.39    1.6660286  0.043011883    60.689742     155.1448 
  210000   -205553.23    1.6581601  0.036602159    60.764273    169.24134 
  215000   -205205.13     1.698832  0.033632662    60.887888     183.3195 
  220000   -205239.73    1.6573922  0.029019722    60.926094     197.3486 
  225000   -205295.28     1.664475  0.022362174    61.007464    211.33981 
  230000   -204817.46    1.6077144  0.021306509    61.128562    225.34649 
  235000   -204898.99    1.6439644  0.013356488    61.289842    239.33269 
  240000   -204758.87    1.6663121  0.010248598    61.352239    253.29147 
  245000    -204782.2    1.6963673 0.0038205359        61.49    267.22215 
  250000   -204569.11    1.6703778 0.0051312106    61.539931      281.132 
Loop time of 281.132 on 8 procs for 100000 steps with 2304 atoms

Performance: 61465.757 tau/day, 355.705 timesteps/s
94.7% CPU use with 8 MPI tasks x 1 OpenMP threads

MPI task timing breakdown:
Section |  min time  |  avg time  |  max time  |%varavg| %total
---------------------------------------------------------------
Pair    | 50.967     | 57.957     | 63.178     |  53.9 | 20.62
Bond    | 0.0086242  | 0.01031    | 0.011915   |   0.9 |  0.00
Kspace  | 109.27     | 110.71     | 112.46     |  11.2 | 39.38
Neigh   | 13.233     | 13.497     | 13.983     |   6.1 |  4.80
Comm    | 12.013     | 12.207     | 12.331     |   2.8 |  4.34
Output  | 0.00067048 | 0.00098956 | 0.0031661  |   0.0 |  0.00
Modify  | 69.39      | 78.896     | 85.699     |  68.2 | 28.06
Other   |            | 7.856      |            |       |  2.79

Nlocal:        288.000 ave         292 max         280 min
Histogram: 1 0 0 0 0 2 1 0 1 3
Nghost:        7013.00 ave        7062 max        6963 min
Histogram: 1 1 0 0 2 2 0 0 1 1
Neighs:         0.00000 ave           0 max           0 min
Histogram: 8 0 0 0 0 0 0 0 0 0
FullNghs:      290940.0 ave      295141 max      282710 min
Histogram: 1 0 0 0 2 0 1 0 1 3

Total # of neighbors = 2327524
Ave neighs/atom = 1010.2101
Ave special neighs/atom = 0.0000000
Neighbor list builds = 1474
Dangerous builds = 0
    unfix 1

    timestep 0.001
    dump moldump all custom 10000 ${xyzname} id type q x y z
    dump moldump all custom 10000 r8f0_coulombic_1.68.lammpstrj id type q x y z
    fix 1 all   nph                 iso ${ppress} ${ppress} 1.0
    fix 1 all   nph                 iso 0 ${ppress} 1.0
    fix 1 all   nph                 iso 0 0 1.0
    run ${t_eq}
    run 10000000
PPPM initialization ...
  using 12-bit tables for long-range coulomb (src/kspace.cpp:340)
  G vector (1/distance) = 0.12081734
  grid = 30 30 30
  stencil order = 5
  estimated absolute RMS force accuracy = 0.00053864148
  estimated relative force accuracy = 0.00053864148
  using double precision KISS FFT
  3d grid and FFT values/proc = 8000 3600
  generated 0 of 1 mixed pair_coeff terms from geometric mixing rule
Per MPI rank memory allocation (min/avg/max) = 11.05 | 11.07 | 11.08 Mbytes
Step PotEng Temp c_press Lx CPU 
  250000   -204569.17    1.6703778  0.005129177    61.539931            0 
  255000   -204430.27    1.6945174 0.0017123617    61.637569    13.462794 
  260000   -204485.17    1.7132205 -0.0019783186    61.689087    26.920363 
  265000   -204426.43    1.6347154 0.00062380817    61.689776    40.410435 
  270000   -204291.75    1.6717983 0.0052609129    61.643706     53.86268 
  275000   -204242.92    1.6965968 -0.0049905429    61.765247    67.305216 
  280000   -204312.24    1.6565871 0.0014979113     61.70736     80.77982 
  285000   -204189.76    1.6770835 0.0038128154    61.691782    94.233656 
  290000   -204195.78    1.6371013 -0.0056916063    61.798769    107.68498 
  295000   -204143.76    1.6534285 0.0043278051    61.718516    121.15097 
  300000   -204182.72    1.6643335 0.0031146813    61.715211    134.63022 
  305000    -204216.2    1.6105255 -0.0010020817    61.771331    148.04664 
  310000   -204098.25    1.6887734 0.0066953838     61.72701    161.49776 
  315000   -204213.85    1.6782489 -0.0027902731    61.789059    174.90179 
  320000   -203995.83    1.6489965 0.0018182527    61.803964    188.35914 
  325000   -203984.69    1.6685387 -0.003704982    61.913783    201.77167 
  330000   -204107.26     1.657027  0.002034346    61.810356    215.20415 
  335000   -204064.92     1.643719 0.00096806006    61.765239     228.6677 
  340000   -204034.74    1.6981601 0.0070433517    61.725833    242.13737 
  345000   -204113.02    1.6568322 0.0092519317    61.729475     255.5977 
  350000   -204074.88    1.7477755 -0.0053619968    61.929364    268.97093 
  355000   -203928.78    1.6776972 0.0022259365    61.868373     282.4043 
  360000   -204019.26    1.7009672 -0.0010770231    61.835676     295.8055 
  365000   -204235.87    1.6745495 -0.0025967253    61.796027    309.24369 
  370000   -204267.66    1.6977956 0.0015059342    61.725964    322.69848 
  375000    -204179.9    1.7128968 -0.0032686941    61.838961    336.15008 
  380000   -204105.78    1.7462059 0.0029671472    61.784349    349.59906 
  385000   -204212.22    1.6846373 -0.0018667364    61.806583    363.03456 
  390000   -204098.13    1.6989137 0.00063236251    61.778369    376.43706 
  395000   -204083.13    1.6808943 -0.0036179594    61.880661    389.88504 
  400000   -203944.92    1.6621065 -0.0044483952    61.928408    403.31822 
  405000   -204009.48    1.6420159 -0.0032206029    61.928229    416.69162 
  410000   -203779.03    1.6616515 0.0047351302    61.871332    430.08897 
  415000   -203953.44    1.6720317 0.0022005684    61.850216    443.51047 
  420000   -203661.56    1.6972181 0.00037282825    61.991145    456.94461 
  425000    -203953.8    1.6858761 -0.0043631848    61.947944    470.33932 
  430000   -203771.09    1.6403849 -0.0016678546    62.000252    483.71377 
  435000   -203810.24    1.6415895 -0.0046450541    62.045642    497.15683 
  440000   -203618.05    1.6681692 0.0054362338    61.938432    510.59663 
  445000   -203761.44    1.6432857 0.0077972671    61.902146    523.97596 
  450000   -203787.34    1.6259719 -0.0048815592    62.010146    537.36352 
  455000   -203700.73    1.6217525 0.0055629565     61.89867    550.76991 
  460000   -204017.15    1.6515827 -0.0014218014    61.917431    564.21576 
  465000   -203983.57    1.7082569 -0.00059595105    61.920975    577.62741 
  470000   -203982.13    1.6952149 -0.00073811763    61.849108    591.03554 
  475000   -203908.33    1.6548811 -0.001275407    61.864554    604.45731 
  480000   -204001.14    1.6676708 -0.0024372273    61.979292    617.91046 
  485000   -203995.23     1.713655 0.0078045321    61.839135    631.29692 
  490000   -203977.47    1.6512336 -0.0029675964    61.902257    644.70574 
  495000   -203848.73    1.6756254 0.0062689382    61.851917    658.09158 
  500000    -203889.9    1.7112469 0.0026872889    61.817215    671.51241 
  505000   -204178.14    1.6743434 0.00081613898    61.770508    684.93609 
  510000   -204175.82    1.7060792 0.0033126854     61.79583    698.38213 
  515000   -204128.56    1.6541496 0.0014487055    61.770116    711.78413 
  520000   -204091.95    1.6663551 -0.0016027054    61.797081    725.25748 
  525000   -204044.99    1.6908513  0.001865212    61.782123    738.69444 
  530000   -204116.34    1.6504732 -0.0042450577    61.847287    752.12628 
  535000   -204239.11     1.702933 -0.0024016897    61.790838    765.55989 
  540000   -204293.52    1.6482208 -0.0016635696    61.747388    778.99748 
  545000   -203973.18    1.7046452  0.001081822     61.83956    792.43917 
  550000   -203955.82    1.6879934 0.00080153641    61.844557    805.87447 
  555000   -204054.97     1.674169 -0.002746656    61.854229    819.33178 
  560000   -204127.41    1.6597544 -0.0038933332    61.853168    832.78825 
  565000   -204256.89    1.6572697 -0.0053107072    61.814235    846.18732 
  570000   -204232.41    1.6744552 0.0037152375    61.664055    859.62997 
  575000   -204030.21    1.6797708 -0.0019902065    61.832398     873.0745 
  580000   -204028.07    1.6549002 0.0015433673    61.899147    886.51881 
  585000   -203833.42    1.6878285 0.0025190891      61.9762    899.89558 
  590000   -203961.91    1.7009981 0.0043251688    61.870167    913.27489 
  595000   -203939.54    1.6261303 -0.0046472607    62.015056    926.66449 
  600000   -204195.21    1.7455615 -0.0048223434    61.896162    940.07991 
  605000   -204187.84    1.6393994 0.0014112195    61.747093    953.51854 
  610000    -204231.8    1.7467837 0.0038494024     61.76182    966.97538 
  615000   -204169.95    1.6501942 -0.0022065478    61.835103    980.44941 
  620000   -204017.76    1.6986517 -0.0016490416    61.880248    993.84613 
  625000   -204263.63    1.6865237 -0.0010703367    61.788142    1007.2701 
  630000   -204253.69    1.6883251 -0.0022197351    61.784341    1020.7272 
  635000   -204224.24    1.7080287  0.002167746    61.724748    1034.2026 
  640000   -204138.93    1.7027959 -0.0016737335    61.846393    1047.7013 
  645000   -204283.63     1.646205 0.0042664179    61.693325    1061.1445 
  650000    -204076.2    1.6509417 0.00027425432    61.770693    1074.5866 
  655000   -204147.18    1.6811826 0.00023375584    61.792479    1088.0095 
  660000   -204067.71    1.6819341 0.0035682428    61.816215    1101.4545 
  665000   -204010.25    1.7307087 0.00034602279    61.905898     1114.873 
  670000   -204037.02    1.6672308 0.0022539603     61.81308    1128.3184 
  675000   -203875.45    1.6578545 0.0038290975     61.85571    1141.8076 
  680000   -203816.46    1.7061177 0.0021217322    61.958597    1155.2405 
  685000   -203897.49    1.6638518 -0.00027899644      62.0005    1168.6083 
  690000   -203943.72    1.6675423 0.0010056701    61.917614    1182.0617 
  695000   -203800.72    1.6667479 -0.0017718703    61.983684    1195.5161 
  700000   -203949.19    1.7582667 0.0036401909    61.893827    1208.9372 
  705000    -203762.2    1.6340389 -0.0056459021    62.067282    1222.3277 
  710000   -203712.22    1.6880183 0.00091836289     62.02869    1235.7466 
  715000    -203825.6    1.6013081 0.0026147288    61.969316    1249.1368 
  720000   -203991.32     1.656258 0.0072252445    61.848577    1262.5672 
  725000   -203943.24    1.6232336 -0.0035883142    61.887378    1275.9844 
  730000   -203725.71    1.6391149 0.0032856737    61.857376    1289.4225 
  735000   -203811.76    1.7226851 -0.0041310256    61.963973    1302.8339 
  740000   -203894.19    1.6372784 -0.0021931799    61.910866    1316.2759 
  745000   -203988.51    1.6770693  0.002526822    61.768316    1329.6643 
  750000   -204013.74    1.6920736 0.0034888046    61.819027    1343.1567 
  755000   -203829.08    1.6679394 -0.0062070766     61.94071    1356.5505 
  760000   -203930.66    1.7306713 -0.0056882801    61.918923    1370.0061 
  765000   -203977.61    1.6750546 0.0021281942    61.794266     1383.408 
  770000    -204048.4    1.6585443 -0.00033893615    61.880942    1396.8567 
  775000    -204096.1    1.6873124 -0.00031984929    61.848389    1410.2929 
  780000   -204126.96     1.670076 -0.0007577714    61.846134    1423.7213 
  785000   -204055.36    1.6818001 0.0023558681    61.797051    1437.1186 
  790000    -203928.5    1.6784892 -0.0011921077    61.914982    1450.5621 
  795000   -203789.05    1.6766509 0.0028444493    61.889518    1463.9828 
  800000   -203752.99    1.6808316 -0.0015801719    62.020813    1477.4047 
  805000   -203658.01     1.716915 -0.0040170936    62.093502    1490.7601 
  810000   -203689.15    1.6893975  0.001344853    61.969389    1504.1562 
  815000   -204010.88     1.631228 0.0045220203    61.851173    1517.5142 
  820000   -203831.53    1.7146096  0.004605069    61.902785    1530.9415 
  825000   -203944.19    1.7224836 0.0041343152    61.861425    1544.3333 
  830000   -203741.83    1.7309786 0.0017797489    61.984989    1557.7474 
  835000   -203607.95    1.6858744 -0.00099963997    62.017192    1571.1161 
  840000   -203985.95     1.692878 -4.7467431e-05    61.844434     1584.587 
  845000   -204040.59    1.6668073 -0.0022360313    61.763136    1598.0282 
  850000   -204031.44    1.6518376 0.0035847511    61.707299    1611.4549 
  855000   -204027.72    1.6685184 -0.003495578    61.860149     1624.919 
  860000   -203831.69    1.6698873 0.0056088652    61.788879    1638.3766 
  865000   -203845.17    1.6825685 0.00050048322     61.80698    1651.8217 
  870000   -204207.02    1.6840964 0.0012974332    61.708257    1665.2781 
  875000   -204012.96    1.7057939 0.0046755172    61.771276    1678.7528 
  880000   -204021.68    1.6580428  0.003272299    61.807534    1692.2294 
  885000   -204025.46    1.6697734  0.005655134    61.694507    1705.6918 
  890000   -204080.01    1.6833404 -0.0013398298    61.789708    1719.2319 
  895000   -203826.25    1.6829112 -0.0041954886    61.878684    1732.7254 
  900000   -203977.52    1.7281703 0.0045985185    61.743541    1746.1499 
  905000   -203906.81    1.6879779  0.003720753    61.766612       1759.6 
  910000   -204015.53    1.6530474 0.0052534795    61.738723    1773.0502 
  915000   -203839.92    1.7265268 0.0024173995    61.839736    1786.4722 
  920000   -203855.97    1.6451077 0.0020871546     61.85327    1799.8951 
  925000   -204010.26    1.7031253 -0.0032444842    61.905641    1813.3208 
  930000   -204187.51    1.6541255 0.0034492785    61.691575     1826.763 
  935000   -204409.03    1.6738538 -0.0001366494    61.677009     1840.198 
  940000   -204237.37     1.698772 0.0064065704     61.61434    1853.6454 
  945000   -204253.97    1.6643685 -0.0084705757    61.828324    1867.1151 
  950000   -204153.29    1.6980092 -0.0036168171    61.771584    1880.5526 
  955000   -204252.37    1.6310378 -0.0017762388    61.757694    1893.9631 
  960000   -203993.92       1.6716 0.0044038887    61.744855    1907.4008 
  965000   -203922.41    1.6940864 -0.001147441    61.876326     1920.818 
  970000   -204023.95    1.6692431 -0.0032510397    61.898809    1934.2168 
  975000   -204084.78    1.6830261 -0.0048051675    61.885117    1947.6436 
  980000   -204084.96    1.7140974 -0.00067288505    61.815007    1961.0873 
  985000   -204030.75    1.6607577 0.0011135349    61.786846    1974.4945 
  990000   -204005.02    1.6758245 -0.00035982726    61.878064     1987.897 
  995000      -203860    1.7137876 -0.0040251931    61.940437    2001.3501 
 1000000   -204080.94    1.6735101 -0.0010868306    61.774453    2014.7414 
 1005000   -204137.53    1.6811306 -0.0034066765    61.823103     2028.209 
 1010000   -204000.97    1.7414788 0.0021193513    61.831841    2041.6474 
 1015000   -204075.17    1.7001364  0.007608843    61.710679    2055.0566 
 1020000   -203988.27    1.5828679 4.0434504e-05    61.804288    2068.4797 
 1025000   -203829.48     1.689524 0.0039676247    61.831941    2081.8924 
 1030000   -203966.72    1.6279022 0.0026256571    61.799248    2095.2778 
 1035000   -204006.78    1.6847796 -0.0030073193    61.843825    2108.6548 
 1040000   -204107.75    1.6542616 -0.0043282495     61.81808    2122.1171 
 1045000   -204034.38    1.6641213 0.0008205251    61.847359    2135.5276 
 1050000   -204128.88      1.66099 0.0037593945    61.696906    2148.9464 
 1055000   -204235.09    1.6474339 -0.00031989097    61.698955    2162.3973 
 1060000   -204248.53    1.6984154 0.0010231116    61.657308    2175.8387 
 1065000   -204157.77    1.7395591 0.0026248674    61.696374    2189.2848 
 1070000   -204147.25    1.6807012 -0.0019524264    61.775496    2202.7531 
 1075000   -204050.11    1.6520494 -0.00097138678    61.780399     2216.208 
 1080000   -204177.73    1.6219639 0.0021431402    61.710958    2229.6565 
 1085000   -204129.75    1.6774044 0.0018268455    61.759658    2243.1054 
 1090000   -204256.25    1.6386956  0.001974794    61.766163    2256.5566 
 1095000    -204199.4    1.6807515 0.0024071736    61.700356    2270.0064 
 1100000   -204329.87    1.7276037 0.0045472667      61.6823    2283.4704 
 1105000   -204219.23    1.6420237 0.0017468671    61.698315    2296.8909 
 1110000    -204299.2    1.6557316 -0.001530897     61.71804    2310.3466 
 1115000   -204377.03    1.7120032 0.0031619817    61.620826    2323.8406 
 1120000   -204204.48    1.6784673 -0.0022911791    61.761501    2337.2826 
 1125000   -204194.52    1.6545982 -0.001221613    61.700961    2350.7624 
 1130000   -203963.07    1.6915636 -0.0079492865    61.944562    2364.2193 
 1135000   -203862.33    1.6889617 0.0012276707     61.84665    2377.6541 
 1140000   -203823.93    1.6910205 0.0033690924    61.897703    2391.0417 
 1145000   -203905.77    1.6785155 0.00027869213    61.894352    2404.4525 
 1150000    -204033.2     1.696592 -0.0022247091    61.917758    2417.8854 
 1155000   -204011.47    1.6769226 0.00079318953    61.790634    2431.3241 
 1160000   -204107.69    1.6937287 0.0036216638    61.774487    2444.7584 
 1165000   -203903.28    1.7234039 -0.0026716371    61.854866    2458.1942 
 1170000   -203931.31    1.6775106 -0.003043511    61.879019    2471.5988 
 1175000   -204281.62    1.6888303 0.0047114179    61.684942    2485.0077 
 1180000   -204236.96    1.7059393 0.0025334106    61.702792    2498.4722 
 1185000   -204256.85    1.6633431 -0.00098469249     61.73957    2511.9057 
 1190000   -204215.67    1.6987713  0.010131518    61.633815    2525.3617 
 1195000   -204187.44    1.7091631 0.0063154939    61.694942    2538.8032 
 1200000   -204030.45    1.6282486 0.00087331859    61.785309    2552.2659 
 1205000    -204215.8    1.6787769  0.003143425    61.757789    2565.7296 
 1210000   -204072.89    1.7088228 -0.0042726516    61.825383     2579.151 
 1215000   -204201.72    1.6829912 -0.0055289472    61.879082    2592.5618 
 1220000   -204337.28    1.6720367 -0.00077074871    61.713763    2606.0333 
 1225000   -204302.19    1.6994956 -0.0011778069    61.733897    2619.4671 
 1230000   -204275.81    1.6925067 0.0047932759    61.685244    2632.9032 
 1235000   -204246.36     1.691794  0.006327143    61.684345    2646.3279 
 1240000    -204127.3    1.6728765 -0.0023623682    61.825437    2659.7981 
 1245000   -204172.48    1.6675964 0.0011863721     61.77917    2673.1852 
 1250000   -204147.64    1.6798328 0.00048534662    61.825852    2686.6188 
 1255000   -204211.35    1.6712128 -0.0027860116    61.834032    2700.0457 
 1260000   -204038.49    1.7128186 0.0034698868    61.777967    2713.4753 
 1265000   -204050.34    1.6898111 -0.0016252515     61.81443    2726.8748 
 1270000   -204104.17    1.6532017  0.007037347    61.755606     2740.275 
 1275000   -204105.72    1.6341737 -0.0031326531    61.842729    2753.6593 
 1280000    -204035.9    1.6645424 -0.0012466568    61.894637    2767.0437 
 1285000   -204039.58    1.6649418 -0.0047668164    61.871052    2780.4566 
 1290000   -204016.44    1.6871903 -0.00063018387    61.898965    2793.8368 
 1295000   -204190.32    1.6834643 0.00060638904    61.796417    2807.2314 
 1300000   -204133.11    1.6823104 -0.0055607893     61.86257    2820.6431 
 1305000   -204141.74    1.6675653 -0.00023488872    61.768047    2834.0326 
 1310000   -204243.02    1.6448735 -0.0026903649    61.743199     2847.446 
 1315000   -204074.77    1.6521617  -0.00398745    61.821898    2860.8551 
 1320000   -204188.97    1.7131291 -0.0022446195    61.817054     2874.314 
 1325000   -204047.85    1.6778826 0.0047884882    61.742449    2887.7529 
 1330000   -203932.52    1.6282664 0.00029693728    61.835011    2901.1574 
 1335000   -203921.41    1.6666683 -0.0012240577    61.792869    2914.5357 
 1340000   -203997.13    1.6540481 -0.0068537789    61.862776    2927.9827 
 1345000   -203879.87     1.684722 -0.0018375617    61.866043    2941.3974 
 1350000   -204161.99     1.668579 -0.0031873521     61.79892    2954.8436 
 1355000   -204207.96    1.6993196 0.0027198488    61.723272    2968.2573 
 1360000    -204362.7    1.6453145 0.00088259973    61.706372    2981.7303 
 1365000   -204086.78    1.6985177 0.0080604081      61.7393    2995.1541 
 1370000   -204119.34    1.6998622 0.00022331291    61.780483    3008.5854 
 1375000   -204199.21    1.7035081 0.0018837524    61.753108    3022.0277 
 1380000   -203909.45    1.6348641 -0.0040421489    61.844966    3035.4434 
 1385000   -204044.99    1.7047196 -0.00031634372     61.84165    3048.8495 
 1390000   -204083.34    1.6301122 0.0042805695    61.825082    3062.2426 
 1395000   -204043.36    1.7044996 -0.0085826763    61.956164    3075.6479 
 1400000   -203933.47    1.6863185 0.0020385062    61.837792    3089.0745 
 1405000   -203905.34    1.7046252 0.0011272748    61.852147    3102.4957 
 1410000   -204066.99    1.6769777 -0.0017769801    61.787645    3115.8629 
 1415000   -204182.39    1.6929754 -0.00067802531    61.748579    3129.3152 
 1420000   -204147.72    1.6862805   0.00275316    61.704447    3142.7546 
 1425000   -204032.41    1.7175734 -3.1448814e-05    61.789887    3156.1685 
 1430000   -204298.92    1.6723669 -0.005180531    61.752014    3169.6151 
 1435000   -204057.01    1.7073856 0.0022176341    61.712629    3183.0259 
 1440000   -203960.06    1.7050911 -0.0011728122    61.864293    3196.4481 
 1445000   -203775.34    1.6801823 -0.0017480063    61.958421    3209.8341 
 1450000   -203781.18    1.6406621 -0.0023122563    61.865732    3223.2192 
 1455000   -203799.48    1.6821113 0.0020980694    61.839865    3236.6218 
 1460000   -204005.72    1.6888579 0.0025159871    61.767591    3250.0025 
 1465000   -203873.31    1.6072996 -0.0022392309    61.890978    3263.3884 
 1470000   -203929.47    1.7011841 -0.00079423808     61.87894    3276.7682 
 1475000   -203710.57    1.7371266 -0.0020459053    61.919295    3290.1172 
 1480000   -203724.35    1.6699107 -0.0041711063    61.955222    3303.5082 
 1485000   -204045.81    1.6841398 -0.0032891514    61.857947    3316.9173 
 1490000   -204089.96    1.6586721 0.0023697601    61.743827    3330.3265 
 1495000   -203968.61    1.6677762 -0.0030704318    61.765183    3343.7089 
 1500000   -204191.38     1.664036 -0.00082984981    61.769342     3357.078 
 1505000   -203976.43    1.6866224 0.0064549829    61.769653    3370.4752 
 1510000   -204154.58    1.6586267 0.0023539485    61.782281    3383.8704 
 1515000   -204150.92    1.6459169 -0.0018254711    61.795226    3397.2592 
 1520000   -204351.45    1.6904338 -0.0009878265    61.723425    3410.6593 
 1525000    -204007.6    1.7165166 0.0025176763     61.78484     3424.097 
 1530000   -203996.82    1.6851168 0.00036352865    61.848607    3437.4672 
 1535000   -204084.12    1.6888165 0.0027490532    61.805285    3450.8598 
 1540000   -204060.22    1.6579646 -0.0017288789    61.882094     3464.221 
 1545000   -203814.55    1.6455351  -0.00311465    61.931741    3477.5909 
 1550000    -203825.9     1.703356 -0.003014999    61.904294    3490.9739 
 1555000   -203908.01     1.697661 0.0045732246    61.777457    3504.3922 
 1560000   -204039.32    1.6504924 0.0039267864    61.769324    3517.7939 
 1565000   -203948.82    1.6708273 -0.003714674     61.85286    3531.2216 
 1570000   -204100.12    1.6454661 0.00061016409    61.729273    3544.5946 
 1575000   -204041.75    1.6894528 -0.0075649937    61.851542    3558.0015 
 1580000   -204193.59     1.708843 -0.0031800165    61.738017    3571.4026 
 1585000   -204286.05     1.749493 0.0008060238    61.665995    3584.8212 
 1590000   -204234.41    1.6562292 0.0029140577    61.642468    3598.2773 
 1595000   -204130.15    1.6508602 -0.0094156173     61.81066    3611.7046 
 1600000   -204058.88    1.6826044 0.0054533673    61.721785     3625.104 
 1605000   -204174.36    1.7027656 -0.0017509172    61.734187    3638.5309 
 1610000   -204111.34     1.682743 -0.0028800081    61.787158    3652.0373 
 1615000   -204306.13    1.6715193 0.0036818105    61.658623     3665.464 
 1620000   -204036.05    1.6484199 0.0011903675    61.735042    3678.8781 
 1625000   -204007.84    1.6747912 0.0030362266    61.753526    3692.2746 
 1630000   -204141.16    1.7179202 -0.0037623587    61.748752    3705.6755 
 1635000    -204077.6    1.6710814 0.0011162703    61.733941    3719.0992 
 1640000   -204117.21    1.6972806 -0.00087757316    61.756278    3732.5168 
 1645000   -204021.93    1.7184885 0.0026090233    61.714786    3745.9001 
 1650000   -204065.64    1.6582679 0.0042575214    61.759822     3759.307 
 1655000   -203966.68    1.6977021 0.00087561612    61.780148    3772.7181 
 1660000   -204007.62    1.6780879  0.004518704    61.753585    3786.1229 
 1665000   -204213.53    1.7090382 -0.0048345615    61.764841    3799.5746 
 1670000   -204161.66    1.6963259 -0.004261687    61.759081    3812.9901 
 1675000   -203957.22    1.6719155 -0.004092107    61.832984    3826.4156 
 1680000   -204161.38    1.7097837 0.0029130671    61.672313    3839.8091 
 1685000   -203977.12    1.6758362 0.00013800628    61.814802    3853.2439 
 1690000   -204000.11     1.687364 0.00048021982    61.846431    3866.6409 
 1695000   -203908.88    1.6958119 0.0012661183    61.820307    3880.0535 
 1700000   -203949.79    1.6567842 -0.0047204117    61.869158    3893.4888 
 1705000   -204102.28    1.6661386 -0.00017147935    61.750195    3906.8804 
 1710000   -204194.11    1.6181204 -0.004335235     61.76409    3920.3194 
 1715000   -203904.09    1.6901502 -0.00038274297    61.872081    3933.7277 
 1720000   -204204.03    1.7279659 0.0011076881    61.790478    3947.1475 
 1725000   -204272.07    1.6895989 -0.00072371615    61.815312    3960.5514 
 1730000   -204198.52    1.6771754 -0.0034429754    61.784099     3973.946 
 1735000   -204440.31    1.7047203 0.0076008166    61.585732    3987.3624 
 1740000   -204225.12    1.6681629 -0.0039657819    61.763106    4000.8236 
 1745000   -204242.67    1.6672103 0.0014918758     61.66297     4014.304 
 1750000   -204148.94    1.6705723 -0.0049346807     61.77911    4027.7835 
 1755000   -204171.28    1.6564911 -0.00057427593    61.753421    4041.2674 
 1760000   -204399.42    1.6962536 -0.00060304225    61.694145    4054.7154 
 1765000   -204094.46    1.6301827 0.0020855966    61.737833    4068.1893 
 1770000   -204259.85    1.7100408 -0.00086106155    61.726075    4081.6302 
 1775000   -204184.93    1.6648265 0.00087202246    61.729421    4095.0437 
 1780000   -204068.96    1.7149067 0.0019113205    61.729711    4108.4339 
 1785000   -203858.55    1.6578416 0.0014927451    61.817756    4121.8298 
 1790000   -203918.66    1.7324286 -0.0053921907    61.906425    4135.2726 
 1795000    -203872.3    1.6655955 -0.00035981697    61.820699    4148.6836 
 1800000   -204143.03    1.6386898 0.0038611964    61.773717    4162.0922 
 1805000   -203987.49    1.6738552 -0.0020465297    61.848105    4175.4998 
 1810000    -203952.3    1.6406438  0.004807933    61.764384    4188.9247 
 1815000    -203940.6    1.6979178 0.00015460001    61.868031    4202.3477 
 1820000   -204117.11    1.6648108 0.0045498465    61.761126    4215.7656 
 1825000   -203957.82    1.6693129 0.0031257613    61.859432    4229.1685 
 1830000    -203909.5    1.6515914 0.0016420424    61.841365    4242.5623 
 1835000   -204151.85    1.6856259 -0.00010453493    61.808207    4255.9493 
 1840000   -203883.16    1.6876589 0.0038154291    61.803124    4269.3865 
 1845000   -204020.12    1.7020115  0.000496114    61.805867    4282.8163 
 1850000   -204010.39    1.6754847 0.0052661456    61.708237    4296.2126 
 1855000   -204172.34    1.7116091 0.0034462921    61.738724    4309.6402 
 1860000   -204334.47     1.672047 0.00099277854    61.731949    4323.0464 
 1865000   -204322.08    1.6701888 0.0032890149    61.661762    4336.4528 
 1870000   -204057.17    1.7056106 -0.00043997264    61.809846    4349.8929 
 1875000   -203980.54    1.6741782 -0.00036136069    61.812317    4363.3201 
 1880000   -204048.98    1.6400692 0.0013046012    61.826425    4376.7326 
 1885000   -203986.15    1.7107116 -0.00042141324    61.876181    4390.1359 
 1890000   -203723.72    1.6982917 0.0011979691    61.902246    4403.4862 
 1895000   -203689.98    1.7177654 0.0059262454    61.815436    4416.8911 
 1900000   -203885.53    1.6463577 -0.0012125636    61.812307    4430.2842 
 1905000   -204111.16    1.6366295 0.0034464603    61.745662    4443.7015 
 1910000    -204076.5    1.6710166 -0.0024680147    61.842465      4457.09 
 1915000   -204265.76     1.627866 -0.0033690807    61.767107    4470.5314 
 1920000   -204082.86    1.7111743 -0.00023070023    61.792744    4483.9637 
 1925000   -204007.76    1.6571028 -0.0022051686    61.846736    4497.3796 
 1930000   -204360.26     1.664272 -0.00061879371    61.775585    4510.7983 
 1935000   -204171.46    1.6499791 -0.0014183431    61.809498    4524.2219 
 1940000   -204043.76    1.6821086 -0.0067599645    61.901153    4537.6763 
 1945000   -204012.17     1.618085 0.0024575259     61.86051    4551.1206 
 1950000   -203861.16    1.6858816 0.0044156045    61.884257    4564.4766 
 1955000   -203911.68    1.6943402 0.0024777406    61.864539    4577.8695 
 1960000   -203999.46    1.6225259 0.0015718849    61.873088    4591.2774 
 1965000   -204049.34    1.6795411 -0.0070670313    61.885492    4604.6888 
 1970000   -204151.97    1.6706345 0.0053568098    61.654346     4618.119 
 1975000   -204139.99     1.643971 3.1724345e-05    61.775972    4631.5579 
 1980000   -204102.32     1.642703 -0.0052592928    61.842684    4645.0199 
 1985000   -204271.96    1.7007099 0.0042851944    61.714376    4658.4324 
 1990000   -204057.73     1.680821 -0.00054144485    61.816879    4671.8386 
 1995000   -203997.47      1.69072 0.00010551656    61.781963    4685.2393 
 2000000   -204054.07    1.6745867 0.0067790252    61.643874    4698.6745 
 2005000   -204130.66    1.6716326 0.0033811226    61.681182    4712.1116 
 2010000   -204085.63    1.6806968 0.0031953037    61.749411    4725.4937 
 2015000   -204116.69    1.6793903 -0.00011939772    61.800201    4738.9047 
 2020000   -204181.24    1.6683201 0.0036872559    61.734548    4752.2976 
 2025000   -204078.82     1.663287 -0.002594195     61.81672    4765.6608 
 2030000   -204049.75    1.6702007 -0.00017308117    61.825729    4779.0893 
 2035000   -203923.59    1.6825694 0.0053319332     61.82299    4792.4764 
 2040000   -203884.44    1.7181717 -0.0038782399    61.991869    4805.8402 
 2045000   -203840.12    1.7244599 -0.00076475712    61.945397    4819.2337 
 2050000   -203868.33    1.6657896 0.0024599583    61.881031    4832.6181 
 2055000   -203777.04    1.7378081 0.0023142505    61.956865    4846.0454 
 2060000   -203934.76    1.6743849 -0.0029677982     61.89295    4859.4356 
 2065000   -203874.79    1.7129718 -0.0059571786    61.946173    4872.8465 
 2070000   -203972.24    1.6755277 0.0035607777    61.798084    4886.2113 
 2075000   -203831.08    1.6725957 -0.0010722727    61.918365     4899.596 
 2080000   -203996.55    1.7220901 -8.1539995e-05    61.898075    4913.0024 
 2085000    -203911.8    1.6842994 9.5074407e-05    61.921688    4926.3899 
 2090000   -203905.99    1.6343302 -0.001432375    61.847614    4939.7632 
 2095000   -203870.43    1.6811786 -0.0014961871    61.827374    4953.2021 
 2100000   -204024.45    1.6678899 -0.0034204444    61.910688    4966.6129 
 2105000    -203919.5    1.6519152 -0.0037793611     61.93086    4980.0077 
 2110000   -203690.51    1.7170303 -0.0059245314    62.072879    4993.4015 
 2115000   -203769.22    1.7340098  0.003566668    61.918377    5006.7657 
 2120000   -203908.87    1.6677424 -0.00082800656     61.84873    5020.1538 
 2125000    -203759.6    1.7200135 0.0064069206    61.870345    5033.5494 
 2130000   -203628.78    1.6989406 0.0047154649    61.939527    5046.9627 
 2135000   -203741.41    1.6956637 -0.0034431151    61.934494    5060.3353 
 2140000   -203780.05    1.7033141 0.0053720372    61.863426    5073.6988 
 2145000   -204080.57    1.6565917 0.00065397833    61.786762    5087.0744 
 2150000   -203769.08    1.6597893 0.0016523772    61.845691    5100.4827 
 2155000   -203711.21    1.7446109 -3.5350873e-05    61.923647    5113.8623 
 2160000   -203621.05    1.7022352 0.0015434469    61.986519    5127.1976 
 2165000   -203516.78    1.6539492 -0.0027471866    62.086035    5140.5194 
 2170000   -203847.96    1.6746791 -0.0010716295    61.939026    5153.8622 
 2175000   -203757.94    1.6448446 0.0017344687    61.866882     5167.233 
 2180000   -203677.44    1.6835667 -0.0013848763    62.012042    5180.6199 
 2185000   -203968.41     1.680192 -0.00031118218    61.865538    5193.9815 
 2190000   -203777.38    1.6782511 0.0018165087    61.946468    5207.3332 
 2195000   -203647.84    1.6346536 0.0021435635    61.955523      5220.74 
 2200000   -203609.89    1.6837239 0.00059022886    62.025265    5234.0948 
 2205000    -203800.3    1.7113494 -0.00064643755    61.953633    5247.4017 
 2210000   -203784.73     1.667271   0.00223841    61.899989    5260.8021 
 2215000   -203526.54    1.6454345 0.0032258949    61.948474    5274.1707 
 2220000    -203811.6    1.6559795  0.001930508    61.893393    5287.5763 
 2225000   -203741.21    1.7120211 -0.001103041    61.969908    5300.9352 
 2230000   -203580.45    1.7346082 -0.0020220817    62.024455    5314.2979 
 2235000   -203753.55    1.6653882 -0.00049831998    61.910297    5327.6494 
 2240000   -203923.92    1.7419865 0.00085902684    61.872944    5341.0165 
 2245000   -203788.75    1.7215952 0.0019812471    61.895135    5354.3759 
 2250000   -203846.06    1.6974439 -0.00026996362    61.926508    5367.7284 
 2255000   -203769.15    1.7103966 0.0049887381    61.897884    5381.0843 
 2260000   -203795.01    1.6696798 -0.0031236462    61.963909    5394.4473 
 2265000   -203887.42     1.688578 0.0056677719    61.787546    5407.7865 
 2270000    -203898.4    1.7179918 0.0034289581    61.860482    5421.1478 
 2275000   -203913.93    1.7039091 -0.0011726304    61.897282    5434.5285 
 2280000   -203779.29     1.710359 -7.9904316e-05    61.901357    5447.9354 
 2285000   -203678.03    1.6422626 -0.0010587489    61.965718    5461.3279 
 2290000   -203941.32    1.6901615 -0.0054813936    61.888749    5474.7191 
 2295000   -203834.35    1.6982431 -0.0012510829    61.920557    5488.1112 
 2300000   -203944.65    1.7280298 -0.00086662278    61.928266      5501.53 
 2305000    -203928.1    1.7099306 -0.00039204069    61.874922    5514.9354 
 2310000   -203952.16    1.6732436 -0.0028478808    61.935304    5528.3171 
 2315000   -203744.87    1.6851308 -0.0049567359    61.985452    5541.7217 
 2320000   -204016.44    1.6602187 0.0015166779    61.815188    5555.1386 
 2325000   -204074.54    1.6685116 -0.00052745186      61.8121    5568.5031 
 2330000   -204024.56    1.6524446 0.0049554321    61.761818    5581.8895 
 2335000   -204021.31    1.6557012 -0.0022266774    61.852133    5595.3045 
 2340000   -204015.03    1.6614262 -0.0036654401    61.835717    5608.7254 
 2345000   -204123.28    1.6786252 0.0011591499    61.818998    5622.1536 
 2350000   -203983.46     1.659885 -0.0057813041    61.914385    5635.5855 
 2355000   -204071.24    1.6519831 0.0046953944      61.7279    5649.0265 
 2360000    -203882.1    1.6497855 -0.0070141907    61.905792    5662.4543 
 2365000   -203912.72    1.6922872 0.0027574388    61.793711    5675.8503 
 2370000   -203786.03    1.6566548 -0.0072978187    61.982426    5689.2361 
 2375000   -203706.59    1.6382357 -0.0029751847    61.957167    5702.6535 
 2380000   -204014.34    1.6725607 0.0010580167    61.880869    5716.0244 
 2385000   -204139.15    1.6801595 8.5332921e-05    61.787339    5729.4568 
 2390000   -204063.22    1.6432166 -0.002350011    61.835706    5742.8782 
 2395000    -204091.3    1.6395705 0.00089531816    61.757208    5756.2431 
 2400000   -204047.86    1.6960354 0.0035109917    61.797091    5769.6529 
 2405000   -203880.36    1.6947157 -0.0052351211    61.885647    5783.0681 
 2410000   -204188.53    1.6988479 0.0015223756    61.770521    5796.4562 
 2415000   -204115.13    1.6974704 0.0018160961     61.73381    5809.8655 
 2420000   -204247.95    1.6951212 7.4164315e-05    61.667851    5823.3124 
 2425000   -204204.44    1.6984147 0.0011969843    61.751246    5836.7225 
 2430000   -204170.98    1.6613036 -0.0040870106    61.832502    5850.1584 
 2435000   -204170.49    1.7167223 5.9771519e-05     61.76306    5863.5246 
 2440000   -204044.28    1.6918891 0.0018968631    61.797008    5876.9458 
 2445000   -204270.36    1.7088017 0.0002414819    61.715103    5890.3558 
 2450000   -204073.78    1.6820191 -0.00034446909    61.774684    5903.8254 
 2455000   -204133.98    1.6807637 -0.008446914    61.854366    5917.2561 
 2460000   -203819.51    1.6786177 -0.0031906631    61.904536    5930.6771 
 2465000    -204013.1    1.6766649 -0.0028885707    61.902418    5944.0535 
 2470000   -204200.83     1.679818 0.0011949803    61.802039    5957.4339 
 2475000   -203904.53    1.6763277 -0.0056364349    61.974595     5970.809 
 2480000   -204037.19    1.6656401 -0.001526717    61.886513    5984.2239 
 2485000   -203836.98    1.6528542 -0.0068449422    61.980184     5997.591 
 2490000   -203917.07     1.733222 0.00049198679    61.903924    6010.9945 
 2495000   -203904.15    1.6305433 0.0055012628    61.862733    6024.3973 
 2500000   -203997.99    1.6859879 -0.0035022204    61.980586     6037.745 
 2505000   -203774.85    1.7033695 -0.0013453694    61.960096    6051.1285 
 2510000   -203767.21    1.6753816  -0.00222615    61.929434      6064.52 
 2515000   -203904.63    1.6481938 0.00028858374    61.924764    6077.9281 
 2520000   -204176.13    1.6619458 0.00024550456    61.759569    6091.3673 
 2525000   -204012.71    1.6530765 -0.0053895534     61.86378    6104.7843 
 2530000   -204142.62    1.7233905 -0.0055246018    61.764709    6118.1816 
 2535000   -204170.72    1.6773257 -0.0028169236    61.759497    6131.6366 
 2540000   -204209.88    1.6498161 -0.00084920557    61.678986     6145.079 
 2545000   -204025.98    1.6533401 0.0035038205    61.752981    6158.4958 
 2550000   -203878.39    1.6532677 -0.0022640008     61.92786    6171.8699 
 2555000   -203733.62    1.6697694 -0.0089257594     61.94255    6185.2794 
 2560000   -203873.42    1.7214241 -0.0035727586    61.936784    6198.6744 
 2565000   -203923.73    1.6236399 0.0024446482    61.880651     6212.036 
 2570000   -203989.82    1.6844875 -0.0019368737    61.875331    6225.3998 
 2575000   -204032.47    1.6832346 -0.0026177318    61.834815    6238.7873 
 2580000   -204236.13    1.6578667 0.0032793707    61.676765    6252.1899 
 2585000   -204160.73    1.7046561 0.0012194613    61.758262    6265.5895 
 2590000   -204308.14    1.6629731 0.0038927309    61.668676    6279.0224 
 2595000   -204358.84    1.6359731 -0.0024257175    61.745747    6292.4356 
 2600000   -204467.35    1.6858515 0.0030839893    61.674305    6305.8989 
 2605000   -204417.81    1.6865674 0.00091911128     61.66575    6319.3211 
 2610000   -204355.76    1.6702294 -0.00086497189    61.724595    6332.7953 
 2615000   -204421.23    1.6436793 -0.008929937    61.801336    6346.2254 
 2620000   -204209.62    1.7062593 0.0070687782    61.726974    6359.6508 
 2625000    -204261.7    1.6784631 -0.0066158553    61.868189    6373.0654 
 2630000   -204374.13    1.6923691 0.00053283945     61.73903    6386.5175 
 2635000   -204255.84    1.6926914 0.00023190324     61.72465    6399.9564 
 2640000    -204295.4    1.6401767 -0.0038329961    61.794469    6413.3828 
 2645000   -204292.25    1.7229776 -0.0010308711    61.723902    6426.8175 
 2650000   -204097.89     1.684247 -0.0017232835    61.739091    6440.2108 
 2655000   -204283.42    1.6821168 0.0036745217    61.684161    6453.6505 
 2660000   -204309.33     1.784093 0.0035877785    61.691475    6467.0689 
 2665000   -204147.17    1.6619055 -0.0019587378    61.794454    6480.5071 
 2670000    -204083.6    1.7080086 -0.0010290166    61.818579    6493.9177 
 2675000   -204153.16    1.6900546 -0.0015077295     61.81201    6507.3209 
 2680000   -204175.18    1.7211491 -0.00053285551    61.709647    6520.7494 
 2685000   -204386.88    1.6484459 -0.0030207774    61.693693    6534.1989 
 2690000   -204264.73     1.669238 -0.0026324866    61.741416    6547.6081 
 2695000   -204439.58    1.6995981 0.0090937545    61.588986    6561.0344 
 2700000   -204580.01     1.692461 0.0022681326    61.595325    6574.4855 
 2705000    -204613.5    1.6688102 -0.0035381005    61.685545    6587.9749 
 2710000   -204574.84    1.6486517 -0.0038287771    61.636907    6601.4913 
 2715000   -204383.86    1.6875806 0.0020740278    61.701502    6614.9503 
 2720000   -204290.08    1.6685232 -0.0024153207    61.736693    6628.4013 
 2725000   -204311.92    1.6988071 0.0047162807    61.665691    6641.8143 
 2730000   -204286.93    1.7277738 -0.0041088034    61.815671    6655.2449 
 2735000   -204275.54    1.6769657  0.001594789    61.769061    6668.6461 
 2740000   -204375.03     1.677096 0.0014938745    61.755146    6682.0866 
 2745000   -204443.02    1.6932204 0.00041251709    61.673459    6695.4908 
 2750000   -204414.61     1.693566 -0.0013045415    61.670757    6708.9504 
 2755000   -204578.39     1.727352 -0.0024671607    61.611542    6722.4304 
 2760000   -204588.49    1.7067379 -0.004478885    61.672837    6735.9256 
 2765000   -204294.63    1.6481525 -0.0015361518     61.73214    6749.3914 
 2770000   -204310.14    1.7015819 -0.0035548105    61.740141     6762.815 
 2775000   -204270.12    1.6623533 -0.0051933661    61.754527    6776.2344 
 2780000   -204243.73    1.6561654 -0.004085946    61.796188    6789.6783 
 2785000   -204068.31    1.6435967 -0.002329493    61.826122    6803.0858 
 2790000   -204352.82    1.6738228 -0.00077573071    61.807044    6816.5133 
 2795000   -204233.51    1.6698152 0.0031070437    61.725998    6829.9464 
 2800000   -204240.43    1.7225186 0.0050453058    61.739846     6843.363 
 2805000   -204200.72    1.6276419 0.00082124834    61.777345    6856.8038 
 2810000   -204253.64     1.679041  0.001660751    61.732514    6870.2367 
 2815000   -204139.93    1.6328103 0.0037780964     61.69636    6883.7067 
 2820000   -204179.06    1.7149564 0.0016064894    61.655175    6897.1302 
 2825000   -204395.44    1.6524814 0.0045984772     61.63831    6910.5796 
 2830000   -204098.08    1.6660975 -0.0030285432      61.7833    6924.0805 
 2835000   -204176.66    1.6665856 0.0055576053    61.737446    6937.5191 
 2840000    -204268.9     1.689853 -0.0039783616    61.748278    6950.9847 
 2845000   -204305.03    1.7191473 -0.0023145323    61.788302    6964.4079 
 2850000   -204466.44     1.628745 0.0011158723    61.682055     6977.845 
 2855000   -204255.17    1.6570184 0.0013968064    61.759023     6991.279 
 2860000    -204224.2    1.6869702 -0.00052978091    61.776916    7004.6914 
 2865000   -204279.51    1.7192856 -0.0025607372    61.766907    7018.1041 
 2870000   -204288.15    1.6703975 -0.0032743383    61.774715    7031.5496 
 2875000   -204363.49    1.6719072 0.0037552812    61.669381     7045.004 
 2880000   -204099.31    1.6730415 -0.0037636704    61.855026    7058.4401 
 2885000   -204210.16    1.6995925 -0.0033902603    61.790542    7071.9013 
 2890000   -204221.54    1.6662355 0.0003110974     61.75161    7085.3232 
 2895000    -204173.5    1.6552064 -0.0011070611    61.823666    7098.7624 
 2900000   -204075.56    1.7337935 -0.0034203676    61.883699    7112.1399 
 2905000   -204123.05    1.6609165  0.001595443    61.754112    7125.5394 
 2910000   -204183.76    1.6487456 -0.00024581774    61.743236    7138.9395 
 2915000   -204110.02    1.7005674 0.0059357611    61.721189    7152.3409 
 2920000   -204147.82    1.6959891 0.0014818005    61.751185    7165.7777 
 2925000   -204061.96    1.6488728 0.0016648094    61.805496    7179.1956 
 2930000    -204197.2     1.684984 0.0010694097    61.819543    7192.5608 
 2935000   -204077.64    1.7072305  0.001002307    61.803711    7205.9644 
 2940000   -204032.06    1.7027201 -0.0019052651    61.776069    7219.3779 
 2945000   -204263.89    1.7168096 0.0049084239    61.700863    7232.8236 
 2950000    -204190.8    1.7015548 0.0068376161    61.688835    7246.2684 
 2955000    -203996.4    1.6623045 -0.0018885579    61.856075    7259.6724 
 2960000   -204296.67    1.6536142 -0.00091960801    61.819542    7273.0875 
 2965000   -204001.37    1.6604589 5.6458003e-05    61.867854    7286.5018 
 2970000   -203909.94    1.6474381 0.0052140035    61.791508    7299.9239 
 2975000   -203913.31    1.7197731 0.0017728997     61.86516    7313.3357 
 2980000   -204111.27    1.6965853 -0.0052083165     61.85979    7326.7557 
 2985000   -203915.27    1.6587167 -0.0030551668    61.872165    7340.1473 
 2990000   -204220.62    1.6853377 0.00029567975    61.786345    7353.5792 
 2995000   -204055.29    1.6836334 0.0055885058    61.801021    7367.0038 
 3000000   -204045.41    1.6699216 -0.0042075288     61.92035    7380.3701 
 3005000   -203912.97    1.6826463 -0.0030654201    61.922472    7393.8102 
 3010000    -204017.6    1.6569994 -0.0034589622     61.84771    7407.2379 
 3015000    -204216.3    1.6297558 -0.0036142168    61.818481    7420.6671 
 3020000   -204021.65    1.6655116 0.0020870508    61.828807    7434.0668 
 3025000   -204115.26     1.649854 -0.0020322047    61.863781    7447.5014 
 3030000   -204097.23    1.7032674 -0.0055162399    61.836579    7460.8823 
 3035000   -204345.34    1.7114087 -0.00052533216    61.737512    7474.2807 
 3040000   -204170.21    1.6778362 -0.0069540657    61.859392    7487.7037 
 3045000   -204196.57    1.6498901 0.0056910564    61.723717     7501.088 
 3050000   -204197.23    1.6785826  0.001252358    61.759637    7514.4964 
 3055000   -203934.46    1.6492967 -0.00053176272    61.812024    7527.9014 
 3060000   -203937.91    1.6966523  0.002212766    61.829848    7541.3127 
 3065000   -204049.18    1.7106859 -0.0015325472     61.88501    7554.7085 
 3070000   -204254.25    1.6837489 0.00065822854    61.773111    7568.0975 
 3075000   -204102.98    1.6473921 -0.0017655414    61.752281    7581.4891 
 3080000    -203889.8    1.6706763 -0.0019829194    61.930413    7594.9345 
 3085000   -204094.07    1.6301563 -0.0013485237     61.85245    7608.3412 
 3090000   -203984.15    1.7163796 -0.0032037053    61.862654    7621.7542 
 3095000   -204288.55    1.6682866 -0.0069204008    61.854634    7635.1426 
 3100000   -204098.85    1.6889161 0.0033066299    61.776859    7648.5855 
 3105000   -204034.09    1.5988482 0.00051951133    61.842729    7662.0394 
 3110000   -204117.09    1.7076731 0.0065336059    61.755783    7675.5066 
 3115000   -204127.38    1.6507387 -0.0052681238     61.89765    7688.9201 
 3120000   -204028.11    1.6633451 -0.0018714515    61.895045    7702.3713 
 3125000   -204129.08    1.6471523 0.0035502967    61.802092     7715.808 
 3130000   -204132.02    1.7358844 0.0013593997    61.843229    7729.2136 
 3135000   -203984.63    1.6953885 0.00022502683    61.852197    7742.6509 
 3140000   -204125.69    1.6895645 -0.0030722148    61.812183    7756.0889 
 3145000   -204323.76    1.6542337 -0.00074705149    61.761148    7769.5426 
 3150000   -204177.51    1.7090117 0.0034299451    61.772619    7782.9556 
 3155000   -204094.32     1.678689 -0.0013102966    61.849147    7796.3477 
 3160000   -203947.56    1.6845337 0.0044935938    61.782075    7809.7723 
 3165000   -204008.91    1.6721153 -0.0028479472     61.89322    7823.1668 
 3170000   -204142.44    1.6791249 0.0016076747     61.79829     7836.634 
 3175000   -203995.64    1.6722104 -0.0026915042    61.841572    7850.0447 
 3180000   -203899.99    1.6924091 0.0032980892    61.819108    7863.4496 
 3185000   -204082.44    1.6626833 -0.0046427144    61.839564    7876.8309 
 3190000   -204001.03    1.7065936 0.0012833402    61.897857    7890.2242 
 3195000   -203966.16    1.6929171 -0.0043754117    61.961889    7903.6171 
 3200000   -203993.44    1.6930664 0.00069464061    61.857553    7916.9627 
 3205000   -203873.76    1.6534662 -0.0011380728    61.883882    7930.3401 
 3210000   -203915.37    1.6457557 0.0043307371    61.792125    7943.7166 
 3215000   -204007.77    1.6724843 -0.00061937123     61.82174    7957.1139 
 3220000   -204045.03    1.6555818 0.00063916043    61.762827    7970.4878 
 3225000   -204073.11    1.6696218 -0.0068671204    61.851034    7983.9284 
 3230000    -204121.6    1.6595606 0.00024599573    61.723671    7997.3191 
 3235000   -204120.85    1.6845933 0.00024481281    61.743947    8010.7318 
 3240000   -204129.39    1.6452133 -0.0025737831    61.835448    8024.1584 
 3245000   -204257.14    1.6852451 0.0015599083    61.738121    8037.5902 
 3250000   -204335.78    1.7069657 -0.0011978121    61.734532    8051.0253 
 3255000   -204167.56    1.6598786  6.98364e-05    61.740548    8064.4968 
 3260000   -204274.91    1.7213299 0.0053239584    61.652632    8077.9196 
 3265000   -204293.37    1.6745528 -0.0033452983    61.735109    8091.3908 
 3270000   -204285.08    1.6912021  0.007451744    61.645378    8104.7922 
 3275000   -204144.38    1.6604271 0.0015562953     61.72862    8118.2264 
 3280000   -204042.83    1.6238254 -0.00018341903    61.801701    8131.6325 
 3285000   -203898.47    1.6769221 -0.0021970262    61.876278    8145.0739 
 3290000   -204085.73    1.6717902 -0.006954298    61.905735    8158.5459 
 3295000   -204167.75    1.6745897 0.0026512162    61.721869      8171.98 
 3300000   -204082.18    1.7162967 -0.0062503284    61.839291    8185.4465 
 3305000   -203734.05     1.704493 -0.0049478727    61.955722     8198.849 
 3310000   -204051.95    1.6337449 0.00098432182    61.803591    8212.2457 
 3315000   -204137.59    1.6686319 0.0031930132    61.810862    8225.6369 
 3320000   -204075.06    1.7174329 -0.00010633683     61.82714    8239.0335 
 3325000   -203996.44    1.6890874  0.007004933     61.73058    8252.4415 
 3330000   -204034.53    1.6753892 -0.00068860057     61.80488    8265.9203 
 3335000   -204125.16    1.6462431 -0.0041708708    61.847474    8279.3591 
 3340000   -204029.35    1.6886424 -0.0018779843    61.869458    8292.7652 
 3345000   -204016.09    1.6501788 0.0021188716    61.808638    8306.1726 
 3350000   -203862.08    1.6352754 0.0041382962    61.857953    8319.5786 
 3355000   -203954.27    1.6515731 -0.0076126777    62.012137    8333.0125 
 3360000   -203888.37    1.6519307 -0.0018910521    61.952852    8346.4071 
 3365000   -203798.72    1.6934505 0.0027081291    61.928224     8359.811 
 3370000   -204054.88    1.7093852 -0.0009277468    61.847971    8373.2243 
 3375000   -204220.46    1.6863105 0.00047821051    61.745175      8386.66 
 3380000   -204165.31    1.7469582 0.0016255177    61.772192    8400.0646 
 3385000   -204174.67    1.7370232 0.0039654186     61.67008    8413.5375 
 3390000   -204054.63    1.6751888 -0.0024276423    61.855954    8426.9634 
 3395000   -203914.95    1.7032493 -0.00014455539    61.814203    8440.3895 
 3400000   -204066.95    1.7285115 -0.0046761818    61.881057    8453.8406 
 3405000   -204125.66    1.6794177 0.0039058578    61.740647    8467.3204 
 3410000   -204249.64    1.6236656 0.0033814864    61.733888    8480.7796 
 3415000   -204085.95    1.7129287 -0.0012338203     61.80245    8494.2215 
 3420000   -204138.19    1.6893703 0.00095050584    61.771541     8507.626 
 3425000   -203815.98    1.6368223 -0.0028290952     61.87369    8521.0674 
 3430000   -203848.39    1.7263303 0.0022644356    61.860394    8534.4808 
 3435000   -203864.08    1.6665116 0.0045944817    61.849227    8547.8373 
 3440000   -204018.62    1.6910455 0.0020077001    61.798046    8561.2144 
 3445000   -203976.28    1.6221281 -0.0014997565    61.936405     8574.619 
 3450000   -203879.47    1.7069339 0.0040875251    61.838542    8588.0659 
 3455000    -203769.4    1.7116705 0.0025860215    61.903752     8601.482 
 3460000      -204141    1.7095492 0.0013185961    61.786912    8614.9388 
 3465000   -203841.67    1.6489153 0.00066045828    61.831863    8628.3632 
 3470000   -203990.99    1.6661971 -0.0037000777    61.902784    8641.7447 
 3475000   -203949.07    1.6896638 -0.0015521925    61.862524    8655.1742 
 3480000   -203981.79    1.6755657 0.0036844752     61.81778    8668.5829 
 3485000   -203942.61    1.6487451 -0.0013359435    61.844211    8682.0058 
 3490000   -204138.03    1.6764579 -0.0026353936    61.794906     8695.448 
 3495000   -204062.27    1.7161683 -0.0047484585    61.819291    8708.9212 
 3500000   -203924.13    1.6696068 0.00066721267    61.845915    8722.3455 
 3505000   -204093.99    1.6675541 -0.0018873434    61.827361    8735.7616 
 3510000   -204118.24    1.6832935 -0.0039140684    61.766003    8749.1752 
 3515000   -204045.11    1.6733006 -0.0020285894     61.82962    8762.5954 
 3520000    -203999.1    1.6574714 0.0043885969    61.715079     8776.058 
 3525000   -204089.84    1.6944086 -0.0043936218     61.83614     8789.487 
 3530000    -204243.6    1.7457554 0.00029700776    61.699043    8802.9603 
 3535000   -204248.51    1.6671892 0.0021815024    61.713215    8816.4346 
 3540000   -204024.32    1.6667701  0.010579091    61.657092    8829.9398 
 3545000   -204066.73    1.6857591 -0.00074002247    61.819571    8843.3361 
 3550000   -203942.39    1.7015271 -0.00098219252    61.926297    8856.7404 
 3555000   -204128.73    1.6626497 0.0027006554    61.783172     8870.115 
 3560000   -204048.14    1.6837978 -0.00019886985    61.814147    8883.5422 
 3565000   -204167.84    1.7087589 -0.00083586628    61.820766    8896.9271 
 3570000   -203995.19    1.6448423 -0.0040419819    61.804009    8910.3674 
 3575000   -204056.26     1.682266  -0.00197976     61.82739    8923.8419 
 3580000   -204080.79    1.6614728 0.0010676431    61.787229    8937.2762 
 3585000   -204265.71     1.715518 -0.0063320258    61.821998    8950.6787 
 3590000   -204305.43     1.645874 -0.0010422229    61.736553    8964.0919 
 3595000   -204070.34    1.6596081 0.00092170465    61.796176    8977.5349 
 3600000   -204142.82    1.6534444 0.00040485239    61.807727     8990.902 
 3605000   -203982.49    1.7171053 0.0048186858    61.785468    9004.2935 
 3610000   -204037.05    1.6711017 0.0013168633    61.742713    9017.6724 
 3615000   -203851.12    1.6695334 -0.0038758412    61.901792    9031.0975 
 3620000   -203825.69    1.6853809 -0.003226833    61.934353    9044.4692 
 3625000   -203687.41    1.7033382 -0.003148297    61.987224    9057.8488 
 3630000   -204003.85    1.6577432 -0.0017083777     61.83124    9071.2546 
 3635000   -204022.26    1.6870549 -0.0099036345    61.959331    9084.6562 
 3640000   -204047.82    1.6939848 0.0052581066    61.749862    9098.0789 
 3645000   -203829.18     1.716834 0.0040952992    61.849719    9111.4709 
 3650000   -203895.15    1.6664745 -0.004510393    61.964988    9124.8662 
 3655000   -203937.15     1.710934 0.0020936087    61.801471    9138.2581 
 3660000   -203701.78    1.6502049 0.00082050634    61.920421    9151.6604 
 3665000   -203688.16    1.6558173 0.00080891106    61.873986    9165.0336 
 3670000   -203840.71    1.5964061 -0.0019735516     61.90773    9178.4045 
 3675000   -203708.08    1.6735421 -0.0018022304    61.923643    9191.8216 
 3680000   -203737.92    1.7247102 0.0013441397    61.952826    9205.1981 
 3685000   -203873.81    1.7036384 -0.0029475869    61.949894    9218.5453 
 3690000    -203836.7     1.666774 0.0018212686    61.915122    9231.9401 
 3695000   -203952.84    1.7006307 0.0015931103    61.885969    9245.2984 
 3700000   -203981.48    1.7222865 -0.00059565284    61.916834    9258.6648 
 3705000   -203929.68    1.6693846 0.0012152245    61.863666    9272.0852 
 3710000   -203897.68    1.6544769 -0.0014454219    61.919958    9285.4998 
 3715000   -204114.59    1.7160073 0.0014564403    61.839025    9298.8783 
 3720000   -204048.93    1.6802359 -0.00075148054     61.84766    9312.2732 
 3725000   -204173.13    1.6411462 -0.0012496217    61.872619    9325.6849 
 3730000    -203928.7    1.6739276 -0.0048669241    61.917238    9339.1061 
 3735000    -204288.1    1.6915193 -0.0039149252    61.885064     9352.537 
 3740000   -204114.81    1.6831055 0.0014267322    61.807363    9365.9507 
 3745000   -204117.51    1.6235991 0.00092119889    61.818916    9379.3521 
 3750000   -203989.99    1.7057987 -0.00028658541    61.790698    9392.7582 
 3755000   -203895.69    1.6359608 0.00031494909    61.837174    9406.1635 
 3760000   -203838.74    1.6999841 -0.0012454381    61.873037    9419.5683 
 3765000    -203906.3    1.7162738 0.00054905018    61.905011    9432.9873 
 3770000   -203987.44    1.6720329 0.0024040635     61.97275     9446.384 
 3775000   -204068.82    1.6872864 -0.00067515803    61.948666    9459.7703 
 3780000   -204073.03    1.6710012  0.006596834    61.744167    9473.1642 
 3785000   -203969.75      1.62992 0.00021922304    61.851683    9486.5782 
 3790000   -204028.19    1.6886089 -3.7575051e-05    61.881629    9499.9593 
 3795000   -203918.09     1.636814 -0.00041764932    61.877818    9513.3536 
 3800000   -204127.99    1.6939796 0.0019952882    61.787823    9526.7281 
 3805000   -204206.69    1.6848273 0.0010265962    61.791574    9540.1742 
 3810000   -204145.23    1.7126293 -0.0022495359    61.802439    9553.6023 
 3815000   -203975.55    1.6975269 0.0013397358    61.834329    9567.0044 
 3820000   -204019.39    1.6707603 -0.00087016116    61.885298    9580.4464 
 3825000   -203953.53    1.7189236 0.00013015482    61.880789    9593.8178 
 3830000   -204087.47    1.6401315  0.001291993    61.812566    9607.1945 
 3835000   -203915.01    1.6565768 0.0066616447    61.822501    9620.5765 
 3840000   -204021.46    1.7079379 -0.0056956092    61.861791    9634.0118 
 3845000   -204285.16    1.6707626 -0.0016540282    61.778003    9647.4682 
 3850000   -204139.44    1.6670725 -0.0029758216    61.822564    9660.8832 
 3855000   -204365.52    1.6740593 -0.0011237257    61.723479    9674.3258 
 3860000   -204311.49    1.7297168 -0.0023138801    61.770166    9687.7687 
 3865000   -204187.75    1.6692262 0.00069126551    61.772173    9701.2365 
 3870000   -204056.76    1.6962872 0.0028443558    61.800401    9714.6778 
 3875000    -204171.8    1.6895438 -0.004504328    61.877412    9728.0945 
 3880000    -204218.1    1.6915017 0.0033234757    61.768795    9741.5179 
 3885000   -203993.03     1.680988  0.003291737    61.789727    9754.9271 
 3890000    -203995.8     1.655713 0.0011673485    61.795866    9768.3038 
 3895000   -204162.92    1.7086259 -0.0033203904    61.779271    9781.7434 
 3900000   -204398.22    1.6805497 0.00070212209    61.700119    9795.1809 
 3905000   -204322.63    1.6833495 -0.00012440459    61.764405    9808.6323 
 3910000   -204090.97    1.6415271 0.0005105051    61.866698    9822.0189 
 3915000   -204363.32    1.6855786 0.0062692506    61.671413    9835.4176 
 3920000   -204280.13    1.6775238 -0.0030333521    61.882596    9848.8341 
 3925000   -204068.04    1.6440457 0.00021655496    61.763192    9862.2669 
 3930000   -204054.56    1.6417535 -0.0034016905    61.825097    9875.6931 
 3935000   -203909.84    1.7152561 0.0031614666    61.830646    9889.1484 
 3940000   -204138.92    1.6948218 -0.0017789251    61.864184    9902.5333 
 3945000   -204030.78    1.6514493 0.0015695438    61.761387    9915.9372 
 3950000   -204023.96    1.6691055 0.0024391914    61.798627    9929.3223 
 3955000   -204267.79    1.6857319 -0.0023333028    61.718674    9942.7211 
 3960000   -204345.09    1.6570291 0.0030052192    61.666901    9956.1758 
 3965000   -204360.37    1.7002358 0.0013906119    61.752256    9969.6187 
 3970000   -204200.61    1.6685417 -0.0027068056    61.763206    9983.0709 
 3975000   -204239.89    1.6705506 0.00012127988    61.702312    9996.5332 
 3980000   -204216.04    1.6626831 0.0022524702    61.695684    10009.945 
 3985000   -204143.96    1.6464973 -0.0023151411    61.799461    10023.405 
 3990000   -204206.58    1.6968801 -0.0055749414    61.787003    10036.808 
 3995000   -204281.38    1.6400029 -0.00073327817    61.718586    10050.225 
 4000000    -204030.6    1.6715287 -0.0052046709    61.853336     10063.65 
 4005000    -204090.9     1.707204 -0.0019564922    61.816999    10077.096 
 4010000   -204124.03    1.7023928 0.0019772811     61.76898    10090.524 
 4015000   -204257.82    1.6661388 0.0052587836    61.714762    10103.908 
 4020000   -204188.34    1.6707412 -0.0021050598    61.757886    10117.308 
 4025000   -204298.97    1.6829224 9.8613691e-05    61.676886    10130.738 
 4030000   -204280.56    1.6288702 -0.0036238509    61.743042    10144.161 
 4035000   -204198.46    1.6639149 0.0017893898     61.71116    10157.564 
 4040000   -204281.96    1.6961686 0.0011293979    61.642081    10170.999 
 4045000   -204163.88    1.6921169 0.00068119882    61.721749    10184.406 
 4050000   -204231.64    1.6559017 -0.00088471127    61.717143    10197.858 
 4055000   -204319.24    1.7015808 -0.0010740471    61.706527    10211.313 
 4060000   -204287.17    1.6732637 -0.0021552584     61.72155     10224.77 
 4065000    -204253.9    1.6354428 -0.0029764055    61.720654    10238.202 
 4070000   -204164.12     1.707222 -0.0025034625    61.766011    10251.653 
 4075000   -204056.54    1.6319679 0.00070616238    61.752653    10265.079 
[...]
 9085000   -203897.92    1.6900057 -0.0033910359    61.895235    23696.829 
 9090000   -203859.54    1.7316294 0.00061691229    61.865218    23710.248 
 9095000    -203788.3    1.6552572 -0.0015989294    61.933951    23723.639 
 9100000   -203805.54     1.686505  0.010028693    61.828763    23737.029 
 9105000   -203829.03     1.739307 -0.0057402615    61.966417      23750.4 
 9110000   -204037.53    1.6642481 -0.0062376005    61.893937    23763.793 
 9115000   -203972.77    1.6432147 0.00091794178    61.804056    23777.196 
 9120000   -203768.42    1.7082243 -0.0032578716     61.96779    23790.595 
 9125000   -203614.11    1.6961718 -0.0021370381    62.002831    23803.921 
 9130000   -203593.15    1.7097985 -0.0069337601    62.152847    23817.285 
 9135000   -203771.71    1.6887854 -0.0067534225    62.002896    23830.619 
 9140000   -203861.27    1.6914756 -0.0063766207    62.015974    23843.953 
 9145000   -203892.21    1.7119167  0.002145979    61.918324    23857.328 
 9150000   -203703.23     1.621775 0.00097039436    61.970596    23870.681 
 9155000   -203705.65    1.6211323   0.00264074    61.950536    23884.044 
 9160000   -203722.55     1.653246 1.0244026e-05    62.016174    23897.392 
 9165000   -203543.32    1.7064458 0.0039219957     61.91498    23910.766 
 9170000   -203727.72    1.6945192 -0.010047258    62.063792    23924.177 
 9175000   -203649.82    1.6812055 0.0021192923    61.884191    23937.618 
 9180000    -203776.7    1.6946711 -0.0018425165    61.959765    23950.969 
 9185000    -203805.2    1.7010934 0.0043923835    61.923143    23964.346 
 9190000   -203841.13     1.661113 0.0014527744     61.93716    23977.753 
 9195000   -203756.62    1.6264106 0.00032386805    61.913034    23991.119 
 9200000   -203582.93    1.7128356 0.0033695859    61.915268    24004.521 
 9205000   -203684.07    1.6913918 0.00074125933    61.953405    24017.865 
 9210000    -203547.4    1.6896204 -0.0072849177    62.105283    24031.227 
 9215000   -203438.47    1.6704578 -0.0023183668    62.118973     24044.61 
 9220000   -203662.37    1.7232458 0.0063951363    61.913779    24057.973 
 9225000   -203781.25     1.670041 0.0010111256    61.923603    24071.323 
 9230000   -203630.51    1.6752402  -0.00138647    61.966405    24084.719 
 9235000   -203777.89    1.6849514 -0.0040557447    61.963713    24098.136 
 9240000   -203736.36    1.6715588 -0.0029593747     61.99159    24111.526 
 9245000   -203741.98    1.6592486 -0.0031030161    62.024349    24124.897 
 9250000    -203805.2    1.6846248 -0.000645638    61.888411    24138.273 
 9255000   -203977.38    1.6449859 -0.001738851     61.89014    24151.643 
 9260000   -203902.48    1.6286977 -0.0046589166     61.93815    24165.007 
 9265000   -203738.94    1.6518443 -0.00024728771    61.895766    24178.402 
 9270000   -203984.09    1.7076523 0.0031036735     61.79057    24191.838 
 9275000   -203854.47    1.6902854 0.0023652637    61.858457    24205.238 
 9280000   -204053.03    1.7035368 0.0029184304    61.772837    24218.641 
 9285000   -204165.25    1.7028384  -0.00104538    61.788821    24232.068 
 9290000      -203888    1.6916803 -0.0064316684    61.895518    24245.518 
 9295000   -204108.66    1.7149051 -0.0013344662    61.756098    24258.916 
 9300000   -203929.06    1.6525749 -0.0017989365    61.793488    24272.357 
 9305000   -203852.16    1.6517881 -0.0067886851    61.926437    24285.803 
 9310000   -203929.65    1.6998116  0.002543379    61.780641    24299.251 
 9315000   -203921.52    1.6793489 0.00046277431    61.801153    24312.663 
 9320000   -203807.49    1.6718822 -0.0068961457      61.9296    24326.106 
 9325000   -203880.23    1.7148809 0.0061919875    61.811698    24339.521 
 9330000   -203901.03    1.6797881 -0.002693922    61.936781    24352.895 
 9335000    -203818.4    1.6560475 -0.00074501373    61.900661    24366.299 
 9340000   -204031.37    1.6767628 0.0015268093    61.821996    24379.689 
 9345000   -203892.19    1.6698889 -0.0064105193    61.992212    24393.097 
 9350000   -204022.82    1.6952273 -0.0013362568    61.877934    24406.475 
 9355000   -204085.58    1.7123585 -0.0056834908    61.855752    24419.876 
 9360000   -204052.73    1.6975545 -0.0019837277     61.79602    24433.291 
 9365000   -203968.77    1.6537238 -0.00068008164    61.774329    24446.702 
 9370000   -203746.57    1.6313811 -0.0013571892    61.886724    24460.104 
 9375000   -204075.26    1.6958612 0.0016617209    61.755833    24473.499 
 9380000   -204059.72     1.695847 0.0025211968    61.810216    24486.881 
 9385000   -203937.61    1.6665707 -0.00060031771    61.820096    24500.246 
 9390000   -204079.62    1.7416073 -0.00093513942    61.825166    24513.641 
 9395000   -204009.28    1.6672288 -0.0011534206     61.82176    24527.025 
 9400000   -204055.98    1.6505032 0.0015671319    61.780053     24540.39 
 9405000   -204079.45    1.7078005 0.0045071983      61.7828      24553.8 
 9410000   -204281.16    1.6361542 -0.0052170502    61.765748    24567.247 
 9415000   -204324.23    1.6707578 0.00038473945    61.687275    24580.649 
 9420000   -204113.18    1.6988729 0.0023498235    61.742975    24594.075 
 9425000   -204159.26    1.6579249 -0.0021852499    61.738351    24607.505 
 9430000   -204169.36    1.6417946 0.00021432327     61.73112    24620.952 
 9435000   -204016.81    1.6884357 -0.0065580394    61.843445    24634.398 
 9440000   -204179.85    1.7018369 0.0017235713    61.726143    24647.826 
 9445000   -204231.41      1.72312 -0.0001593158    61.720062    24661.242 
 9450000   -204242.85    1.6524725 0.0034173755    61.654097    24674.726 
 9455000   -204287.02     1.657979 -0.0090000541    61.816701    24688.183 
 9460000   -204149.35    1.6704015 0.0048059252    61.613448    24701.636 
 9465000    -204304.8    1.6480344 -0.0042976242    61.742032    24715.108 
 9470000   -204161.32    1.6452727 -0.00069522285    61.754681     24728.59 
 9475000   -204037.74    1.6678016 0.00079594091    61.815682    24742.016 
 9480000   -204113.72    1.6694002 -0.0059719002     61.87739    24755.413 
 9485000   -204130.63    1.7316575 0.0052542142    61.755108    24768.801 
 9490000    -204311.2    1.6866655 0.0031526997    61.734595    24782.191 
 9495000   -204050.73    1.6645646 -0.003451227    61.815569    24795.591 
 9500000   -204055.11    1.7205334 0.0030103828     61.74363    24809.009 
 9505000   -204071.91     1.657679 -0.00075062134    61.783735    24822.449 
 9510000   -204105.75    1.7078035 -0.0030257799    61.815036    24835.887 
 9515000   -204140.53    1.7168748 0.0014037138    61.784883    24849.276 
 9520000   -204296.57    1.6554126 -0.0036552529    61.790847    24862.695 
 9525000   -204034.87     1.706676 -0.0017565802    61.839424    24876.078 
 9530000   -204121.33    1.7120243  0.010441061    61.634513    24889.468 
 9535000    -204148.8    1.6571859 -0.0025625816     61.78141    24902.866 
 9540000   -203998.77    1.7140192 -0.0024653562     61.80059    24916.306 
 9545000   -203825.96    1.6560086 -0.0011296608    61.960016    24929.702 
 9550000   -204120.52    1.6962484 8.2100234e-05    61.787174    24943.074 
 9555000   -203949.07    1.6184719 -0.0029485545    61.930757    24956.464 
 9560000   -203865.54    1.7238406 -0.0014033194    61.935106    24969.792 
 9565000   -203965.54    1.6500473 -0.0022344597    61.877155    24983.172 
 9570000   -204054.06    1.6710545 0.0046466371    61.782797    24996.595 
 9575000    -203845.1    1.6724073 -0.0020932424     61.92322    25010.021 
 9580000   -204032.93    1.6567134 0.0052253347    61.747116    25023.395 
 9585000   -204055.57     1.677074  0.001252782     61.87415    25036.772 
 9590000   -204227.48    1.6450671 0.0024006945    61.742222    25050.169 
 9595000   -203990.61    1.6352345 -0.0036584403    61.933486    25063.543 
 9600000   -203971.11    1.6964314 -0.0087419394    62.039568    25076.917 
 9605000   -203902.07    1.7177435 -0.0023122568     62.00365    25090.267 
 9610000   -203967.16    1.6544064 -0.00082542675    61.913882     25103.64 
 9615000   -203863.31    1.7000101 -0.0049926905    62.045618    25117.029 
 9620000   -203861.26    1.6236688 -0.0030656093    61.956952    25130.382 
 9625000   -203751.49    1.7127301 0.0043187964    61.850797    25143.758 
 9630000   -203971.98    1.6672331 0.00066041414    61.820341    25157.128 
 9635000   -203831.43    1.7238134 0.0012353474    61.853755    25170.565 
 9640000   -203986.55    1.7038052 0.0037567577    61.835918    25183.957 
 9645000   -203953.01    1.6603324 -0.00048445429    61.874087    25197.372 
 9650000    -204107.3    1.6673951 -0.0053876138    61.862678    25210.814 
 9655000   -204042.19    1.6510027 0.0053625661    61.796879    25224.254 
 9660000   -203881.06    1.6943057 0.0051404325    61.876161    25237.659 
 9665000   -204018.02     1.709571 -0.0012823315    61.904424     25251.06 
 9670000   -204114.67    1.6902873 -0.0015243666    61.864472     25264.46 
 9675000   -203864.88    1.7028249 0.0015435463    61.851291    25277.867 
 9680000   -204261.58    1.6590468 0.00043417241    61.779854    25291.291 
 9685000   -203930.02    1.6888036 -0.0039621024    61.898928    25304.735 
 9690000    -203910.4    1.6775492 -0.0030145349    61.902177    25318.155 
 9695000   -203811.67    1.6879388 -0.002515166    61.919198    25331.569 
 9700000   -203958.69    1.6615432 -0.0046720376    62.013842    25344.978 
 9705000   -204205.35     1.710412 -0.0053239698    61.932897    25358.393 
 9710000   -204062.23    1.6888571 0.0036276195    61.810687    25371.818 
 9715000   -204100.38    1.7136529 -0.002056544      61.8507    25385.245 
 9720000   -204054.83    1.6873078 -0.0023478067    61.900289    25398.662 
 9725000   -204004.42    1.6808693 0.0031308261    61.833471    25412.079 
 9730000   -204149.45    1.6813176 0.00038593354     61.80802    25425.448 
 9735000   -204193.57    1.6839934 0.0036642068    61.755112    25438.836 
 9740000   -203948.17    1.6252458 -0.0032264544    61.911315    25452.252 
 9745000   -204024.94     1.698415 0.0038511224    61.830557    25465.653 
 9750000    -203808.9    1.6771739 -0.0051139342    61.866861    25479.054 
 9755000   -203907.57    1.6395045 0.0018996683    61.857838    25492.444 
 9760000   -204022.94    1.7402874 0.0015252234    61.812681     25505.86 
 9765000   -204032.58    1.6771487 0.0049013737    61.871152    25519.267 
 9770000   -204145.92    1.6380559 -0.0022106599    61.841341    25532.664 
 9775000   -203968.95    1.6670126 1.1112851e-05    61.804469     25546.09 
 9780000   -204171.17    1.6767307 0.0042366955    61.686287    25559.507 
 9785000   -204275.23     1.646284 -0.00095550578    61.719641     25572.95 
 9790000   -204160.87    1.6916779 0.0035314007    61.707155    25586.385 
 9795000   -204078.56    1.6741351 0.00071654907    61.770927    25599.791 
 9800000    -204171.4     1.707385 -0.00023928763    61.771849    25613.211 
 9805000   -204223.68      1.67913 0.0037973887    61.698291    25626.617 
 9810000   -204190.66     1.722007 0.0063672533    61.720584    25640.051 
 9815000   -204182.44    1.6650491 0.0052321599    61.676767    25653.462 
 9820000   -204228.12    1.6702508 0.0038962572    61.656738    25666.906 
 9825000   -204178.49    1.7069547 -0.0029818184    61.795374    25680.296 
 9830000   -204041.83    1.6911754 -0.0092140051    61.917797    25693.701 
 9835000   -203965.33     1.659159 0.0011701173    61.850517    25707.115 
 9840000    -203954.5    1.7227002 0.0023418945    61.818038    25720.499 
 9845000   -204027.67    1.6570616 0.0039243633     61.77608    25733.855 
 9850000   -204135.03    1.6605578 0.00070239761    61.827913     25747.25 
 9855000   -204062.69     1.682328 0.0014026332     61.78442    25760.654 
 9860000   -203942.31     1.670133 -0.00094696787    61.876728    25774.025 
 9865000   -203713.61    1.7121357 -0.0036380917    62.064824    25787.364 
 9870000   -203588.43    1.6858161 -0.0022400005     62.05684    25800.777 
 9875000   -203691.23    1.7022224 0.0043427031    61.897583    25814.163 
 9880000   -204124.78    1.7006527 -0.0036008567    61.869118     25827.52 
 9885000   -204063.56    1.6923647 -0.0086013973    61.924196    25840.937 
 9890000   -203936.27    1.6843509 0.0035645974    61.835824    25854.349 
 9895000   -203823.01    1.6761646 0.0059985513    61.843397    25867.746 
 9900000    -204048.2    1.7314203 0.0014635095    61.833043    25881.105 
 9905000   -203666.28    1.7061602 0.0056886802     61.90052    25894.502 
 9910000   -203613.59    1.6850747 -0.0034149939    62.002705    25907.878 
 9915000   -203831.86    1.6761238 0.0061458976    61.856566    25921.264 
 9920000   -203912.54    1.6475481 -0.0015189407    61.855971    25934.663 
 9925000   -203927.88    1.6832833 0.0016683439    61.802087    25948.074 
 9930000   -203970.34    1.7140052 -0.0044572525    61.894928    25961.478 
 9935000   -203918.48    1.7049131 -0.0083494987    61.988884    25974.827 
 9940000   -204067.48    1.7425117 0.00084886257      61.8133     25988.23 
 9945000   -204046.53     1.680458 -0.0022938881    61.850103    26001.648 
 9950000   -204007.87    1.6954299 0.0028260303    61.767154    26015.071 
 9955000   -203829.72    1.6588478 0.0035164153    61.860957    26028.474 
 9960000    -204069.2    1.7193337 0.0051085231    61.765875    26041.874 
 9965000   -204048.42    1.6580772 0.0040434497    61.751007    26055.268 
 9970000   -204001.22    1.7051664 0.0070670741    61.715495    26068.687 
 9975000   -203974.99    1.7237758 -0.00022384768    61.820539    26082.064 
 9980000   -204145.45    1.7062903 -0.0025287912    61.805587    26095.516 
 9985000   -204036.61    1.6918911 -0.00060440262    61.806596    26108.946 
 9990000    -203937.8    1.7183289 -0.0033666782    61.934541    26122.379 
 9995000   -203979.92    1.6872593 -0.0036294754    61.857821    26135.786 
10000000   -203917.88    1.6714956 0.0021035014    61.785247    26149.211 
10005000   -204035.95    1.6844272 0.0039176403    61.736113    26162.585 
10010000   -204072.77    1.6896667 0.0034635804    61.743163    26175.995 
10015000    -204073.3    1.6976817 0.0014951783    61.728943     26189.39 
10020000   -203874.86    1.6711969 -0.0059743527     61.87352    26202.823 
10025000   -203830.71    1.6573565 -0.00089096625    61.848983     26216.19 
10030000   -203929.79    1.6824651 -0.0032103886     61.86482    26229.579 
10035000   -203984.06    1.6692232 -0.0021033737    61.799873    26243.015 
10040000   -204029.26    1.6994798 -0.0045952795      61.8528    26256.447 
10045000   -203917.25    1.6636403 0.0019486339    61.790387    26269.879 
10050000   -204101.81    1.6941375 -0.0017511466    61.830506    26283.262 
10055000   -203911.84    1.6633719 -0.0010724166    61.863741    26296.699 
10060000    -203961.3    1.6927597 -3.5727374e-05    61.860808    26310.092 
10065000   -204101.78    1.6839924 0.0017935701    61.804568    26323.525 
10070000   -203908.49    1.7068484 0.00087915875    61.881644    26336.903 
10075000    -203743.5    1.6963892 0.0052901738    61.842025    26350.304 
10080000   -203953.46    1.6746977 0.0036470289     61.81634    26363.696 
10085000   -203684.44    1.6175538 0.0023907181    61.873894    26377.079 
10090000    -203861.6    1.7254436 0.0024839682    61.859329      26390.5 
10095000   -203852.21    1.6806308 0.0029977644    61.793931    26403.905 
10100000   -203894.35    1.7073808 -0.0038262888    61.885411    26417.343 
10105000   -203637.35    1.6772611 -0.0019048764    62.017765    26430.737 
10110000   -203835.67    1.6835205 -0.005210685    61.931429    26444.132 
10115000   -203792.08    1.7173894 -0.0016173722    61.912406    26457.507 
10120000   -203846.89    1.6678915 -0.0048960081    61.948315    26470.921 
10125000   -203866.69    1.6534553 -0.0026727013     61.93302    26484.316 
10130000   -203791.71    1.6689614 0.0041298633    61.847895    26497.712 
10135000   -203815.96    1.6646009 0.0022203551    61.848626     26511.11 
10140000   -203807.54    1.6709665 0.0015085718    61.816493    26524.504 
10145000   -204081.63    1.7079709 -0.001096134    61.760239    26537.932 
10150000   -203936.88    1.6923435 -0.00080248282    61.814237    26551.362 
10155000   -204027.07    1.6674502 0.0068305145    61.702054    26564.795 
10160000   -203984.88    1.6685453 -0.0030596956    61.845396    26578.219 
10165000   -204052.58    1.6811662 0.0029383629    61.758759    26591.655 
10170000   -204187.02    1.6807092 0.0065600305    61.638578    26605.092 
10175000   -203907.14    1.6999895 0.00077989815    61.845372    26618.545 
10180000   -204134.02      1.71825 -0.0027574404    61.765977    26632.002 
10185000   -204106.03    1.6850648 0.00031093487    61.814227    26645.462 
10190000   -203813.92    1.6389139 -0.00075681586    61.867778    26658.828 
10195000   -203722.85    1.6617311 -0.0022044998    61.952691    26672.196 
10200000    -204052.5    1.6758308 0.0011782216    61.853609     26685.55 
10205000   -204026.76    1.6747327 0.0048813996     61.75142    26698.937 
10210000   -204020.34    1.7241863 0.0033044838    61.842605    26712.334 
10215000    -204084.3    1.6701473 0.0013059607    61.818934    26725.745 
10220000   -204042.65    1.6492412 0.0024070124    61.795563     26739.21 
10225000   -203906.73    1.7167943 -0.0055538501    61.989137      26752.6 
10230000   -203934.88    1.6674983 -0.0026914923    61.908736     26766.04 
10235000    -203938.3    1.6836704 0.0006259155    61.914557    26779.495 
10240000   -203906.28    1.6545401 -0.0017441608    61.937174    26792.901 
10245000    -203928.4    1.6401143 0.0034886729    61.894984    26806.248 
10250000   -203704.23    1.7458941 -0.0023305555    62.024556    26819.649 
Loop time of 26819.6 on 8 procs for 10000000 steps with 2304 atoms

Performance: 32215.186 tau/day, 372.861 timesteps/s
94.7% CPU use with 8 MPI tasks x 1 OpenMP threads

MPI task timing breakdown:
Section |  min time  |  avg time  |  max time  |%varavg| %total
---------------------------------------------------------------
Pair    | 4619       | 5367.7     | 5795.4     | 473.0 | 20.01
Bond    | 0.87021    | 1.0307     | 1.2688     |  11.6 |  0.00
Kspace  | 10863      | 10974      | 11099      |  99.2 | 40.92
Neigh   | 664.38     | 670.66     | 696.62     |  38.3 |  2.50
Comm    | 1127.1     | 1144.3     | 1155.5     |  25.9 |  4.27
Output  | 0.84059    | 0.86987    | 1.0704     |   8.1 |  0.00
Modify  | 6690       | 7851.2     | 8558.8     | 720.9 | 29.27
Other   |            | 810.2      |            |       |  3.02

Nlocal:        288.000 ave         299 max         278 min
Histogram: 1 1 0 2 1 1 0 0 0 2
Nghost:        6803.75 ave        6853 max        6765 min
Histogram: 1 1 0 2 1 1 1 0 0 1
Neighs:         0.00000 ave           0 max           0 min
Histogram: 8 0 0 0 0 0 0 0 0 0
FullNghs:      283683.0 ave      295538 max      273066 min
Histogram: 1 1 0 2 1 1 0 0 1 1

Total # of neighbors = 2269466
Ave neighs/atom = 985.01128
Ave special neighs/atom = 0.0000000
Neighbor list builds = 76297
Dangerous builds = 0

## ----- deletion for small NPs and salt ----- ##
#    reset_timestep 0

#    label checking

#    compute     peatom    all   pe/atom
#    variable    exppe    atom    exp(2*c_peatom/${ttemp})
#    compute     aveS    small   reduce ave v_exppe
#    compute     aveCl   anion   reduce ave v_exppe
#    compute     aveNa   cation  reduce ave v_exppe

#    fix AVE all ave/time 5 ${repeat} ${freq} c_aveS c_aveCl file average.dat
#    thermo 10000
#    thermo_style custom step pe c_press lx cpu
#    thermo_modify norm no flush yes
#    fix AVE all ave/time 1 ${repeat} ${freq} c_aveS c_aveCl c_aveNa
#    variable    chempNP equal ${ttemp}*(ln(v_numS/vol)+ln(v_numCl/vol)*25+ln(f_AVE[1])+ln(f_AVE[2])*25)
#    variable    chempS  equal ${ttemp}*(ln(v_numNa/vol)+ln(v_numCl/vol)+ln(f_AVE[2])+ln(f_AVE[3]))
#    timestep 0.0005
#    run ${freq}

#    print "done! ChempNP= ${chempNP}" append potential.dat
Total wall time: 7:47:44
