LAMMPS (27 Oct 2021)
OMP_NUM_THREADS environment is not set. Defaulting to 1 thread. (src/comm.cpp:98)
  using 1 OpenMP thread(s) per MPI task
package gpu 0
package gpu 2 neigh no pair/only on
#Lammps gcmc code for electrolytes

## ----- Simulation times ----- ##
    variable t_nve      equal 50000             #nve/limit
    variable t_deform 	equal 50000            #nvt
    variable t_pressed 	equal 50000            #nvt
    variable t_relaxed 	equal 100000            #nvt
    variable t_eq 	equal 10000000           #nvt

    variable smallc	equal 10
    variable bigc	equal -80
    variable numB	equal 256
    variable numS	equal ${numB}*8
    variable numS	equal 256*8
#    variable numCl	equal ${numS}*${smallc}+${bigc}*${numB}

## ----- Environment setting ----- ##
    boundary p p p
    atom_style full

## ----- System Variables  ----- ##
    variable    ttemp       equal   $b          	#reduced temperature
    variable    ttemp       equal   1.66          	
    variable    ppress      equal   0			#osmetic pressure
    variable    cutoff_pppm equal   27.8	        #cutoff for the real part of pppm
    variable	ipress      equal   0.1

    variable    bigd        equal   10                      #LJ sigmas
    variable    smalld      equal   2
#    variable    Cl_d        equal   0.4
    variable    d_bs        equal   0.5*(${bigd}+${smalld})
    variable    d_bs        equal   0.5*(10+${smalld})
    variable    d_bs        equal   0.5*(10+2)
#    variable    d_sNa       equal   0.5*(v_smalld+v_Na_d)
#    variable    d_sCl       equal   0.5*(v_smalld+v_Cl_d)
#    variable    d_bNa       equal   0.5*(v_bigd+v_Na_d)
#    variable    d_bCl       equal   0.5*(v_bigd+v_Cl_d)
#    variable    d_NaCl      equal   0.5*(v_Na_d+v_Cl_d)

    variable    cut_small   equal   ${smalld}*1.122462	    #cutoffs for LJ
    variable    cut_small   equal   2*1.122462	    
    variable    cut_big     equal   ${bigd}*1.122462
    variable    cut_big     equal   10*1.122462
#    variable    cut_Na_d    equal   ${Na_d}*1.122462
#    variable    cut_Cl_d    equal   ${Cl_d}*1.122462
    variable    cut_bs      equal   ${d_bs}*1.122462
    variable    cut_bs      equal   6*1.122462
#    variable    cut_bNa     equal   ${d_bNa}*1.122462
#    variable    cut_bCl     equal   ${d_bCl}*1.122462
#    variable    cut_sNa     equal   ${d_sNa}*1.122462
#    variable    cut_sCl     equal   ${d_sCl}*1.122462
#    variable    cut_NaCl    equal   ${d_NaCl}*1.122462

## ----- Initialization and grouping ----- ##
    read_data config_fcc8.dat
Reading data file ...
  orthogonal box = (-80.000000 -80.000000 -80.000000) to (80.000000 80.000000 80.000000)
  2 by 2 by 2 MPI processor grid
  reading atoms ...
  2304 atoms
Finding 1-2 1-3 1-4 neighbors ...
  special bond factors lj:    0        0        0       
  special bond factors coul:  0        0        0       
     0 = max # of 1-2 neighbors
     0 = max # of 1-3 neighbors
     0 = max # of 1-4 neighbors
     1 = max # of special neighbors
  special bonds CPU = 0.002 seconds
  read_data CPU = 0.031 seconds

    set type 1 charge   ${bigc}    	#large NPs
    set type 1 charge   -80    	
Setting atom values ...
  256 settings made for charge
    set type 2 charge   ${smallc}       #small NPs
    set type 2 charge   10       
Setting atom values ...
  2048 settings made for charge
#    set type 3 charge   1       #Na+
#    set type 3 charge   -1      #Cl-

    mass    *   0.2
    mass    1   25.0

    group big       type 1
256 atoms in group big
    group small     type 2
2048 atoms in group small
#    group cation    type 3
#    group anion     type 3

## ----- Interaction setting ----- ##
    pair_style lj/cut/coul/long ${cut_big} ${cutoff_pppm} #lj/cut/coul/long/soft 2.0 0.5 5.0 ${cut_small} ${cutoff_pppm}
    pair_style lj/cut/coul/long 11.22462 ${cutoff_pppm} 
    pair_style lj/cut/coul/long 11.22462 27.8 
    #Between regular particles (4*5/2=10)
    pair_coeff  1   1   2.0     ${bigd}     ${cut_big}	        # big-big
    pair_coeff  1   1   2.0     10     ${cut_big}	        
    pair_coeff  1   1   2.0     10     11.22462	        
    pair_coeff  2   2   2.0     ${smalld}   ${cut_small}	    # small-small
    pair_coeff  2   2   2.0     2   ${cut_small}	    
    pair_coeff  2   2   2.0     2   2.244924	    
#    pair_coeff  3   3   2.0     ${Na_d}     ${cut_Na_d}		    # Na-Na
#    pair_coeff  3   3   2.0     ${Cl_d}     ${cut_Cl_d}       	# Cl-Cl
    pair_coeff  1   2   2.0     ${d_bs}     ${cut_bs}	        # big-small
    pair_coeff  1   2   2.0     6     ${cut_bs}	        
    pair_coeff  1   2   2.0     6     6.734772	        
#    pair_coeff  1   3   2.0     ${d_bNa}    ${cut_bNa}	        # big-Na
#    pair_coeff  1   3   2.0     ${d_bCl}    ${cut_bCl}	        # big-Cl
#    pair_coeff  2   3   2.0     ${d_sNa}    ${cut_sNa}       	# small-Na
#    pair_coeff  2   3   2.0     ${d_sCl}    ${cut_sCl}       	# small-Cl
#    pair_coeff  3   4   2.0     ${d_NaCl}   ${cut_NaCl}       	# Na-Cl
#    pair_modify pair lj/cut/coul/long shift yes
    pair_modify shift yes
    kspace_style	pppm	5.0e-4

## ----- Simulation setup ----- ##
    neighbor 1.2 bin
    neigh_modify delay 0 every 1 check yes #one 2000

    compute temp all temp
    compute press all pressure temp

    thermo 5000
    thermo_style custom step pe temp c_press lx cpu
    thermo_modify norm no flush yes

   # dump moldump all custom 50000 ${xyzname} id type q x y z

## ----- Thermalization of system ----- ##
    timestep 0.0002

    fix 1 all nve/limit 0.05
    fix 2 big langevin ${ttemp} ${ttemp} 0.2 1234567
    fix 2 big langevin 1.66 ${ttemp} 0.2 1234567
    fix 2 big langevin 1.66 1.66 0.2 1234567
    fix 3 small langevin ${ttemp} ${ttemp} 0.008 123456
    fix 3 small langevin 1.66 ${ttemp} 0.008 123456
    fix 3 small langevin 1.66 1.66 0.008 123456

    fix freeze big setforce 0.0 0.0 0.0
    fix zeromom all momentum 1 linear 1 1 1 angular
    run ${t_nve}
    run 50000

CITE-CITE-CITE-CITE-CITE-CITE-CITE-CITE-CITE-CITE-CITE-CITE-CITE

Your simulation uses code contributions which should be cited:

- GPU package (short-range, long-range and three-body potentials):

@Article{Brown11,
 author = {W. M. Brown, P. Wang, S. J. Plimpton, A. N. Tharrington},
 title = {Implementing Molecular Dynamics on Hybrid High Performance Computers - Short Range Forces},
 journal = {Comp.~Phys.~Comm.},
 year =    2011,
 volume =  182,
 pages =   {898--911}
}

@Article{Brown12,
 author = {W. M. Brown, A. Kohlmeyer, S. J. Plimpton, A. N. Tharrington},
 title = {Implementing Molecular Dynamics on Hybrid High Performance Computers - Particle-Particle Particle-Mesh},
 journal = {Comp.~Phys.~Comm.},
 year =    2012,
 volume =  183,
 pages =   {449--459}
}

@Article{Brown13,
 author = {W. M. Brown, Y. Masako},
 title = {Implementing Molecular Dynamics on Hybrid High Performance Computers – Three-Body Potentials},
 journal = {Comp.~Phys.~Comm.},
 year =    2013,
 volume =  184,
 pages =   {2785--2793}
}

@Article{Trung15,
 author = {T. D. Nguyen, S. J. Plimpton},
 title = {Accelerating dissipative particle dynamics simulations for soft matter systems},
 journal = {Comput.~Mater.~Sci.},
 year =    2015,
 volume =  100,
 pages =   {173--180}
}

@Article{Trung17,
 author = {T. D. Nguyen},
 title = {GPU-accelerated Tersoff potentials for massively parallel Molecular Dynamics simulations},
 journal = {Comp.~Phys.~Comm.},
 year =    2017,
 volume =  212,
 pages =   {113--122}
}

@Article{Nikolskiy19,
 author = {V. Nikolskiy, V. Stegailov},
 title = {GPU acceleration of four-site water models in LAMMPS},
 journal = {Proceeding of the International Conference on Parallel Computing (ParCo 2019), Prague, Czech Republic},
 year =    2019
}

CITE-CITE-CITE-CITE-CITE-CITE-CITE-CITE-CITE-CITE-CITE-CITE-CITE

PPPM initialization ...
  using 12-bit tables for long-range coulomb (src/kspace.cpp:340)
  G vector (1/distance) = 0.11438956
  grid = 60 60 60
  stencil order = 5
  estimated absolute RMS force accuracy = 0.00041211524
  estimated relative force accuracy = 0.00041211524
  using double precision KISS FFT
  3d grid and FFT values/proc = 42875 28800
  generated 0 of 1 mixed pair_coeff terms from geometric mixing rule
Neighbor list info ...
  update every 1 steps, delay 0 steps, check yes
  max neighbors/atom: 2000, page size: 100000
  master list distance cutoff = 29
  ghost atom cutoff = 29
  binsize = 14.5, bins = 12 12 12
  1 neighbor lists, perpetual/occasional/extra = 1 0 0
  (1) pair lj/cut/coul/long/gpu, perpetual
      attributes: full, newton off
      pair build: full/bin
      stencil: full/bin/3d
      bin: standard
Per MPI rank memory allocation (min/avg/max) = 11.45 | 11.54 | 11.62 Mbytes
Step PotEng Temp c_press Lx CPU 
       0 1.7992005e+08            0    175.78446          160            0 
    5000   -68372.195     1.484788 -0.004346797          160    39.460763 
   10000   -73690.088    1.5476892 -0.0043320609          160    78.781181 
   15000   -78276.712    1.4485489 -0.0045077143          160    118.04578 
   20000   -82384.607    1.5230079 -0.0043910273          160    157.30738 
   25000   -86049.859    1.4997883 -0.0044977702          160    196.57268 
   30000   -89420.995     1.478472 -0.0044714442          160    235.83634 
   35000   -92657.681    1.4938236 -0.0043544257          160    275.15829 
   40000   -95744.583     1.502171 -0.0044245143          160    314.50795 
   45000   -98344.259    1.5202526 -0.0042860318          160    353.76753 
   50000    -100985.9    1.4582334 -0.0042387019          160    392.98647 
Loop time of 392.987 on 8 procs for 50000 steps with 2304 atoms

Performance: 2198.548 tau/day, 127.231 timesteps/s
99.6% CPU use with 8 MPI tasks x 1 OpenMP threads

MPI task timing breakdown:
Section |  min time  |  avg time  |  max time  |%varavg| %total
---------------------------------------------------------------
Pair    | 9.4531     | 9.7702     | 10.102     |   8.9 |  2.49
Bond    | 0.007261   | 0.0091295  | 0.011053   |   1.3 |  0.00
Kspace  | 376.22     | 377.03     | 377.62     |   2.2 | 95.94
Neigh   | 0.057738   | 0.065128   | 0.073074   |   2.0 |  0.02
Comm    | 2.3962     | 2.781      | 3.3108     |  17.2 |  0.71
Output  | 0.00033509 | 0.00060308 | 0.0024486  |   0.0 |  0.00
Modify  | 2.76       | 2.84       | 2.9194     |   2.9 |  0.72
Other   |            | 0.4879     |            |       |  0.12

Nlocal:        288.000 ave         313 max         260 min
Histogram: 2 0 0 1 0 2 1 0 0 2
Nghost:        1337.38 ave        1360 max        1302 min
Histogram: 1 0 1 0 1 0 2 0 1 2
Neighs:         0.00000 ave           0 max           0 min
Histogram: 8 0 0 0 0 0 0 0 0 0
FullNghs:      16580.0 ave       18944 max       14176 min
Histogram: 2 0 0 1 0 3 0 0 0 2

Total # of neighbors = 132640
Ave neighs/atom = 57.569444
Ave special neighs/atom = 0.0000000
Neighbor list builds = 70
Dangerous builds = 0

#    compute     peatom      all     pe/atom
#    variable    exppe       atom    exp(2*c_peatom/${ttemp})
#    compute     aveS        small   reduce ave v_exppe
#    compute     aveCl       anion   reduce ave v_exppe
#    compute     aveNa       cation  reduce ave v_exppe
#    thermo ${every}
#    thermo_style custom step pe temp lx vol c_aveS c_aveCl c_aveNa cpu
#    thermo_modify norm no flush yes
#    variable    chempNP     equal   temp*(ln(2304/vol)+ln(18300/vol)*10+ln(c_aveS)+ln(c_aveCl)*10)
#    variable    chempS      equal   temp*(ln(5500/vol)+ln(18300/vol)+ln(c_aveNa)+ln(c_aveCl))
#    label checking
#    run ${every}
#    if "${chempNP}>${mu_np}" then 'print "ChempNP=${chempNP}; expel"' "jump gcmc.in checking" else 'print "done!"'

    fix deforming all deform 10 x final -33 33 y final -33 33 z final -33 33 remap x
    run ${t_deform}
    run 50000
PPPM initialization ...
  using 12-bit tables for long-range coulomb (src/kspace.cpp:340)
  G vector (1/distance) = 0.11438956
  grid = 60 60 60
  stencil order = 5
  estimated absolute RMS force accuracy = 0.00041211524
  estimated relative force accuracy = 0.00041211524
  using double precision KISS FFT
  3d grid and FFT values/proc = 42875 28800
  generated 0 of 1 mixed pair_coeff terms from geometric mixing rule
Per MPI rank memory allocation (min/avg/max) = 11.45 | 11.54 | 11.62 Mbytes
Step PotEng Temp c_press Lx CPU 
   50000    -100985.9    1.4582334 -0.0042387019          160            0 
   55000   -107499.35    1.5126894 -0.0039601439        150.6    42.114294 
   60000   -114476.33    1.4902524 -0.0041661517        141.2    84.248815 
   65000    -122035.1    1.4881574 -0.0046460667        131.8    126.44139 
   70000   -129698.76    1.4524609 -0.0035767815        122.4    168.62118 
   75000   -138092.46    1.5504935 -0.0015640719          113    210.91425 
   80000   -146442.28    1.4998662 0.0030998195        103.6    253.27195 
   85000   -155288.51    1.4302104  0.010452824         94.2    295.75083 
   90000   -163892.61     1.502024  0.031383585         84.8    338.41787 
   95000   -172150.91    1.5011917  0.076542042         75.4    381.30458 
  100000   -182293.56    1.5024755   0.16573808           66    424.50585 
Loop time of 424.506 on 8 procs for 50000 steps with 2304 atoms

Performance: 2035.307 tau/day, 117.784 timesteps/s
99.6% CPU use with 8 MPI tasks x 1 OpenMP threads

MPI task timing breakdown:
Section |  min time  |  avg time  |  max time  |%varavg| %total
---------------------------------------------------------------
Pair    | 10.156     | 10.509     | 10.821     |   8.7 |  2.48
Bond    | 0.0068017  | 0.0095137  | 0.012599   |   1.8 |  0.00
Kspace  | 377.86     | 378.35     | 378.77     |   1.5 | 89.13
Neigh   | 0.77783    | 0.86066    | 0.94713    |   6.0 |  0.20
Comm    | 3.8955     | 4.1608     | 4.5341     |  10.2 |  0.98
Output  | 0.00037484 | 0.0045444  | 0.010985   |   5.5 |  0.00
Modify  | 25.575     | 27.95      | 29.907     |  31.7 |  6.58
Other   |            | 2.661      |            |       |  0.63

Nlocal:        288.000 ave         308 max         268 min
Histogram: 2 0 0 0 1 1 1 2 0 1
Nghost:        5844.75 ave        5893 max        5783 min
Histogram: 1 0 1 1 0 1 1 1 1 1
Neighs:         0.00000 ave           0 max           0 min
Histogram: 8 0 0 0 0 0 0 0 0 0
FullNghs:      234286.0 ave      252745 max      216801 min
Histogram: 2 0 0 1 1 1 1 1 0 1

Total # of neighbors = 1874288
Ave neighs/atom = 813.49306
Ave special neighs/atom = 0.0000000
Neighbor list builds = 332
Dangerous builds = 0

    unfix 1
#    unfix 2
    unfix freeze
    unfix deforming

    timestep 0.002

    fix 1 all   nph	            iso ${ipress} ${ipress} 1.0
    fix 1 all   nph	            iso 0.1 ${ipress} 1.0
    fix 1 all   nph	            iso 0.1 0.1 1.0
    run ${t_pressed}
    run 50000
PPPM initialization ...
  using 12-bit tables for long-range coulomb (src/kspace.cpp:340)
  G vector (1/distance) = 0.1206864
  grid = 32 32 32
  stencil order = 5
  estimated absolute RMS force accuracy = 0.00049681107
  estimated relative force accuracy = 0.00049681107
  using double precision KISS FFT
  3d grid and FFT values/proc = 9261 4096
  generated 0 of 1 mixed pair_coeff terms from geometric mixing rule
Per MPI rank memory allocation (min/avg/max) = 9.329 | 9.332 | 9.334 Mbytes
Step PotEng Temp c_press Lx CPU 
  100000   -182255.95    1.5024755   0.16733602           66            0 
  105000   -200255.97    1.6695794   0.09615838    61.946743    14.257117 
  110000   -201781.33    1.7410162    0.1052452    60.843339    28.734162 
  115000   -203427.06    1.6526553   0.10286042    60.324105    43.344039 
  120000   -204159.06    1.6438777   0.10895742    60.091173    58.066157 
  125000   -204773.07    1.6992462  0.090518951    60.069406    72.770294 
  130000   -204894.77    1.6481425   0.10356468     59.95601    87.447466 
  135000   -205052.95    1.6115454  0.096967024    60.013294     102.0948 
  140000   -205334.61    1.6484873   0.10025211    59.940207    116.70933 
  145000   -205485.23    1.6450209  0.092103972    60.011804    131.36499 
  150000    -205522.7    1.6414202  0.094970731    59.992826    145.98856 
Loop time of 145.989 on 8 procs for 50000 steps with 2304 atoms

Performance: 59182.663 tau/day, 342.492 timesteps/s
97.6% CPU use with 8 MPI tasks x 1 OpenMP threads

MPI task timing breakdown:
Section |  min time  |  avg time  |  max time  |%varavg| %total
---------------------------------------------------------------
Pair    | 12.902     | 17.076     | 19.271     |  46.5 | 11.70
Bond    | 0.0044002  | 0.0055284  | 0.0075739  |   1.4 |  0.00
Kspace  | 67.194     | 67.867     | 68.707     |   7.1 | 46.49
Neigh   | 6.32       | 6.581      | 6.9505     |   6.9 |  4.51
Comm    | 6.0736     | 6.1439     | 6.2118     |   1.8 |  4.21
Output  | 0.00033795 | 0.00050575 | 0.0016536  |   0.0 |  0.00
Modify  | 43.074     | 45.659     | 48.358     |  26.4 | 31.28
Other   |            | 2.655      |            |       |  1.82

Nlocal:        288.000 ave         297 max         278 min
Histogram: 1 0 0 2 2 0 0 2 0 1
Nghost:        7254.12 ave        7274 max        7233 min
Histogram: 1 1 1 0 1 0 0 2 1 1
Neighs:         0.00000 ave           0 max           0 min
Histogram: 8 0 0 0 0 0 0 0 0 0
FullNghs:      314878.0 ave      325074 max      304052 min
Histogram: 1 0 1 1 2 0 0 2 0 1

Total # of neighbors = 2519026
Ave neighs/atom = 1093.3273
Ave special neighs/atom = 0.0000000
Neighbor list builds = 723
Dangerous builds = 0
    unfix 1
    fix 1 all   nph	            iso ${ipress} ${ppress} 1.0
    fix 1 all   nph	            iso 0.1 ${ppress} 1.0
    fix 1 all   nph	            iso 0.1 0 1.0
    run ${t_relaxed}
    run 100000
PPPM initialization ...
  using 12-bit tables for long-range coulomb (src/kspace.cpp:340)
  G vector (1/distance) = 0.1214165
  grid = 30 30 30
  stencil order = 5
  estimated absolute RMS force accuracy = 0.00050026442
  estimated relative force accuracy = 0.00050026442
  using double precision KISS FFT
  3d grid and FFT values/proc = 8000 3600
  generated 0 of 1 mixed pair_coeff terms from geometric mixing rule
Per MPI rank memory allocation (min/avg/max) = 9.790 | 9.804 | 9.813 Mbytes
Step PotEng Temp c_press Lx CPU 
  150000   -205522.55    1.6414202  0.094976086    59.992826            0 
  155000   -205481.56    1.6812019  0.091383131    60.048578    14.124063 
  160000   -205561.45    1.6273132  0.088143431     60.08201    28.244067 
  165000   -205663.93    1.6756096  0.087490559    60.088608    42.306479 
  170000   -205774.91    1.6610584  0.075929126    60.194649    56.379746 
  175000   -205760.25    1.6500039  0.072294285    60.249147    70.453199 
  180000    -205631.7    1.6256615  0.072134343    60.329021    84.471945 
  185000   -205704.54    1.6674118  0.065732479    60.346575     98.50098 
  190000   -205658.47    1.6639997  0.054930256    60.494113    112.53539 
  195000   -205454.03    1.6772655  0.066791383     60.45748    126.55052 
  200000   -205561.47    1.6783932  0.046939422    60.601267     140.5743 
  205000   -205467.75    1.6479496   0.04868602    60.638562    154.59419 
  210000   -205672.58    1.6649969  0.043126894    60.643875    168.61986 
  215000   -205568.35    1.7381836  0.039383159     60.72763    182.65616 
  220000   -205379.12    1.6585174  0.028642385    60.920242    196.64511 
  225000   -205256.57    1.6761234  0.029547172    60.961853    210.63356 
  230000   -205154.15    1.6889516  0.021098273    61.141755    224.57132 
  235000   -205058.26    1.6160342  0.011487414    61.208462    238.51026 
  240000   -204937.24     1.680776 0.0095527283    61.321967    252.41811 
  245000   -204675.36    1.5970629 0.0070223882    61.432277    266.28247 
  250000   -204645.81    1.6749838 -7.8461716e-05    61.523443    280.15169 
Loop time of 280.152 on 8 procs for 100000 steps with 2304 atoms

Performance: 61680.838 tau/day, 356.949 timesteps/s
94.3% CPU use with 8 MPI tasks x 1 OpenMP threads

MPI task timing breakdown:
Section |  min time  |  avg time  |  max time  |%varavg| %total
---------------------------------------------------------------
Pair    | 51.031     | 58.511     | 62.637     |  45.9 | 20.89
Bond    | 0.0088048  | 0.010731   | 0.014654   |   1.9 |  0.00
Kspace  | 108.28     | 109.79     | 111.39     |  11.7 | 39.19
Neigh   | 12.831     | 13.186     | 13.747     |   7.7 |  4.71
Comm    | 12.17      | 12.342     | 12.507     |   3.1 |  4.41
Output  | 0.00063124 | 0.0011618  | 0.0048307  |   4.1 |  0.00
Modify  | 62.223     | 78.931     | 88.542     |  92.8 | 28.17
Other   |            | 7.384      |            |       |  2.64

Nlocal:        288.000 ave         291 max         284 min
Histogram: 1 1 0 0 2 0 0 0 3 1
Nghost:        7037.38 ave        7056 max        7020 min
Histogram: 1 1 1 0 1 1 0 2 0 1
Neighs:         0.00000 ave           0 max           0 min
Histogram: 8 0 0 0 0 0 0 0 0 0
FullNghs:      292278.0 ave      294948 max      287900 min
Histogram: 1 1 0 1 0 1 0 0 0 4

Total # of neighbors = 2338222
Ave neighs/atom = 1014.8533
Ave special neighs/atom = 0.0000000
Neighbor list builds = 1449
Dangerous builds = 0
    unfix 1

    timestep 0.001
    dump moldump all custom 10000 ${xyzname} id type q x y z
    dump moldump all custom 10000 r8f0_coulombic_1.66.lammpstrj id type q x y z
    fix 1 all   nph                 iso ${ppress} ${ppress} 1.0
    fix 1 all   nph                 iso 0 ${ppress} 1.0
    fix 1 all   nph                 iso 0 0 1.0
    run ${t_eq}
    run 10000000
PPPM initialization ...
  using 12-bit tables for long-range coulomb (src/kspace.cpp:340)
  G vector (1/distance) = 0.12082367
  grid = 30 30 30
  stencil order = 5
  estimated absolute RMS force accuracy = 0.00053822191
  estimated relative force accuracy = 0.00053822191
  using double precision KISS FFT
  3d grid and FFT values/proc = 8000 3600
  generated 0 of 1 mixed pair_coeff terms from geometric mixing rule
Per MPI rank memory allocation (min/avg/max) = 11.05 | 11.07 | 11.08 Mbytes
Step PotEng Temp c_press Lx CPU 
  250000   -204645.86    1.6749838 -8.0523421e-05    61.523443            0 
  255000   -204304.76    1.6511031 -8.7712914e-07    61.680474    13.469317 
  260000   -204602.53    1.6432257 0.00070340592    61.551446    26.914622 
  265000   -204442.89     1.650417 -0.002582583    61.661853    40.390126 
  270000   -204306.89    1.6891653  0.001043643    61.651185    53.807747 
  275000   -204340.88    1.6364098 -0.0022300671     61.70467    67.257738 
  280000   -204476.94    1.6251449 0.00051776041     61.61418    80.735957 
  285000   -204380.87     1.701984 0.0071647141    61.598975    94.192403 
  290000   -204436.63    1.6445663 0.0018234124    61.549468    107.65828 
  295000   -204448.26    1.6455504 -0.00047332094    61.591619    121.09376 
  300000   -204182.68    1.6923305 -0.0023961648    61.769938    134.56149 
  305000    -204169.2    1.6614781 -0.00085318144    61.755498    147.98876 
  310000   -204120.28    1.6814334 -0.0089983937     61.96211    161.40115 
  315000   -204274.87    1.6312566 -0.0065309294    61.844105    174.81088 
  320000   -204224.83    1.6265078 0.0019472236    61.740186    188.23843 
  325000   -204163.89    1.6626902 -0.0033272636    61.778392    201.65948 
  330000   -204283.79     1.665445 0.0052386555    61.666296    215.07979 
  335000    -204234.5    1.6586657 0.00069597246    61.698855     228.5337 
  340000   -204054.93    1.6577438 -0.0010939213    61.755659    241.97147 
  345000   -204119.85    1.6429576 -0.0010104874    61.795596    255.38909 
  350000   -204353.39    1.6413585 0.0053886887    61.696273    268.84364 
  355000   -204240.85    1.6680659 -0.0040195368    61.874703     282.3163 
  360000   -203879.74    1.7269523 0.00064133804    61.926922    295.71392 
  365000    -204205.2    1.6803382 -0.0026292222    61.874225    309.14133 
  370000    -204200.3    1.6463852 0.0042056742    61.780574    322.56448 
  375000   -204181.51     1.625603 -0.0017389114    61.873684    335.98517 
  380000   -204194.45    1.6494243 -0.0012917836     61.80238    349.39634 
  385000   -204101.37    1.6288384 0.0045208037    61.739143    362.80945 
  390000   -204215.81     1.674737 0.0030288836    61.675765    376.27914 
  395000   -204295.29    1.6648862 0.0029930378    61.719877    389.71513 
  400000    -204225.8    1.5846303 -0.0014382444    61.714814    403.14983 
  405000   -204365.54    1.6956705 0.0032679683    61.679313    416.63127 
  410000   -204165.34    1.6313099  0.004899632    61.685784     430.0834 
  415000   -204161.87    1.6539045 0.00081462917    61.714931    443.55551 
  420000   -204302.97    1.6401297 0.0037567269    61.752923    456.98333 
  425000   -204130.85     1.623437 -0.0011352749    61.785063    470.42799 
  430000   -204284.55    1.6455365 -0.0010812047    61.755768    483.91779 
  435000   -204174.82    1.6988584 -0.00014069026     61.74662    497.35668 
  440000   -204144.65    1.6602173 -0.0014223022    61.733777    510.81385 
  445000   -204429.09    1.6178556 0.00064558273    61.610351    524.25413 
  450000   -204347.38    1.6409477 -0.0033381741    61.698972    537.74237 
  455000   -204338.54    1.6965698 -0.0052179229    61.738377    551.17259 
  460000   -204420.38    1.6716235 -0.00076413578    61.681695      564.624 
  465000   -204497.12    1.5987726 -0.0031886419    61.675277    578.00853 
  470000   -204358.74    1.6897369 -0.0004478808    61.742998    591.45541 
  475000   -204202.28    1.6404384 -0.0055728179    61.799091    604.88864 
  480000   -204425.59    1.5883517 -0.0025609162    61.713873    618.36674 
  485000   -204333.22    1.6374852 -0.0063126843    61.783852    631.80128 
  490000   -204149.13    1.6910817 0.0023945648     61.72378    645.24189 
  495000   -204467.33    1.6724868 -0.003381183    61.672913    658.69599 
  500000   -204264.09     1.637512 -0.0014609523    61.725747    672.12526 
  505000   -204479.72    1.6314815 -0.0011628738    61.628767    685.57705 
  510000   -204534.97    1.6458742 0.00018739041    61.689203    698.99037 
  515000   -204283.36    1.6502795 0.0013361776    61.671111    712.46368 
  520000   -204295.72    1.6281138 0.0011241639    61.686649    725.87856 
  525000   -204322.18    1.6690472 -0.0028589752    61.784224     739.3178 
  530000   -204161.17    1.6530275 -0.0021571978    61.760875    752.72772 
  535000   -204244.68    1.6877635 0.0036094126    61.692627    766.16671 
  540000   -204500.06    1.6441098 0.0011528645    61.629365    779.63222 
  545000   -204405.11    1.6068945 -0.00027653062     61.66131    793.06587 
  550000   -204495.29    1.6798289 -0.00068781312    61.637191    806.57045 
  555000   -204485.06    1.6404969 0.0071565983    61.579975    820.03912 
  560000   -204362.61    1.6572883 -0.00077613112    61.632158     833.4921 
  565000    -204602.3    1.6297749 0.0031051662    61.592675    846.96635 
  570000   -204203.84    1.6427005 0.0058148378    61.686169    860.44127 
  575000   -204400.54    1.6412076 -0.0043108846    61.722199    873.87774 
  580000    -204490.9    1.6404322 -0.0008857686    61.703143    887.36166 
  585000    -204452.3    1.6909231 0.00076655824     61.73467    900.80768 
  590000   -204226.18    1.6813931 0.0016791573    61.762151    914.18024 
  595000   -204393.19      1.66196 0.00090238993    61.688501    927.57968 
  600000   -204405.68    1.6411748 -0.001971978     61.71522     941.0139 
  605000   -204342.52    1.6240136 -0.0063005151    61.798313    954.41901 
  610000   -204366.91    1.6402521 -0.002871732    61.712604     967.8961 
  615000    -204313.8    1.6264858 0.0015168777    61.732351    981.34627 
  620000   -204310.28    1.6498831 -0.00011284688    61.671589    994.77097 
  625000   -204278.65    1.6830388 -0.0014587074    61.795664    1008.1869 
  630000   -204234.04     1.713419 0.0057694561    61.724112    1021.6249 
  635000   -204377.09    1.6729737 0.0043678341    61.660188    1035.0337 
  640000   -204352.15    1.6355641 -0.0045142187    61.742692    1048.4831 
  645000   -204383.45    1.6645355 0.0053433874    61.641265    1061.9177 
  650000   -204509.14    1.6792653 0.0028246207    61.616069    1075.3892 
  655000   -204347.35    1.6494974 0.00045025683    61.702609    1088.8048 
  660000   -204618.21    1.6054889 -0.0043894331    61.670297    1102.2363 
  665000      -204509    1.6606682 0.0039584383    61.569948    1115.7195 
  670000   -204572.64    1.7046878 0.0056706564    61.517091    1129.2008 
  675000   -204560.15     1.627919 -0.0029634313    61.665574    1142.6593 
  680000   -204409.57    1.6787534 0.0005721469    61.620694    1156.1199 
  685000   -204383.45    1.6378702 -0.002529465     61.65698    1169.5915 
  690000   -204524.75    1.6748498 0.0019648513    61.597778    1183.0906 
  695000   -204407.62    1.6157478 0.0022721851     61.65811    1196.5796 
  700000   -204379.47    1.6652178 0.0023075122    61.674984    1210.0538 
  705000   -204319.87    1.5957144 -0.0021153395    61.759983    1223.5265 
  710000   -204311.69    1.6699393 -0.0065166612    61.854013    1236.9738 
  715000   -204153.04    1.6846613 -0.0010381887    61.784226    1250.4043 
  720000   -204335.38    1.6588007 0.0073492592    61.679296    1263.8375 
  725000   -204292.37    1.6574044 -0.00026200714    61.730408    1277.2553 
  730000      -204412    1.6726841 0.0031737897     61.71143    1290.7035 
  735000   -204347.66    1.6234785 -0.0033885931    61.737531    1304.1344 
  740000   -204476.01    1.6767194 -0.0020020218    61.723174    1317.5739 
  745000   -204457.09    1.6459932 -0.0023960358    61.707989    1331.0529 
  750000   -204198.69    1.6641197 0.0056794401    61.689089    1344.5014 
  755000   -204352.38    1.5893647 -0.00019300123    61.644694     1357.972 
  760000   -204275.41    1.6284652 -0.00085988508    61.713913    1371.4185 
  765000   -204179.81    1.6992826 -0.0062459455    61.831983    1384.8252 
  770000   -204399.14    1.6803301 0.0017880029    61.673123    1398.2527 
  775000   -204426.79    1.6393682 0.0043113597    61.651638    1411.6861 
  780000   -204452.86    1.6389617 0.0019679016    61.641101    1425.1329 
  785000   -204334.88    1.6067616 -0.0032571002     61.77904    1438.5932 
  790000   -204056.41    1.6347658 1.9238311e-05    61.790884     1452.037 
  795000   -204228.17    1.6998826 0.00083914066     61.74054    1465.4598 
  800000   -204328.35    1.6425599 0.0027353143    61.644415    1478.8899 
  805000    -204378.4     1.673027 0.0033789272    61.618887    1492.3583 
  810000   -204298.89    1.6728233   0.00055729     61.69336    1505.7861 
  815000   -204505.97    1.6906549 -0.0018703215    61.705946    1519.2151 
  820000   -204518.49    1.5841714 -0.00025461125    61.653668    1532.6727 
  825000   -204400.94    1.6533257 0.00086380411    61.612544    1546.1029 
  830000    -204494.2    1.6764749 -0.0011914797    61.567643    1559.5578 
  835000   -204568.06    1.6524035 -0.0007056426    61.606428    1573.0128 
  840000   -204492.21     1.665813 0.0024907552    61.601781    1586.4896 
  845000    -204737.2    1.6443876 -0.0037824169    61.665707    1600.0037 
  850000   -204799.49    1.6412482 -0.0026381726     61.63272    1613.4642 
  855000   -204481.04    1.6354293 0.0010435087    61.639158    1626.9204 
  860000   -204407.33    1.6595821 -0.0019980814    61.648391    1640.3855 
  865000   -204553.19    1.6769962 0.0019853968    61.604665    1653.8717 
  870000   -204443.08    1.6730015 -0.0052149622     61.74473    1667.3392 
  875000    -204193.9     1.667149 -0.0010195956    61.761204    1680.7733 
  880000   -204356.05     1.681958 -0.0032051944    61.820459     1694.192 
  885000   -204285.35    1.6488629 -0.0010187077    61.761547    1707.6294 
  890000   -204499.45    1.6779194 -0.00040302661    61.679718    1721.0647 
  895000   -204298.51     1.646924 0.0036025838    61.714545     1734.516 
  900000   -204225.94    1.6966761 0.0009411273    61.785888    1747.9543 
  905000   -204254.28    1.6362572 -0.0050192726    61.793384    1761.3761 
  910000   -204171.26    1.7059145 -0.0057443122    61.836831    1774.8048 
  915000   -204312.15    1.6655948 -0.00022174787    61.784071    1788.2019 
  920000   -204242.73     1.661118 0.0054550274    61.713088    1801.6212 
  925000    -204329.7    1.6460684 -0.0021212129      61.7974    1815.0374 
  930000   -204249.29     1.701076 -0.005358822    61.794889    1828.4566 
  935000   -204445.79      1.64624 0.0001507417    61.690281    1841.9082 
  940000   -204307.37    1.6675851 -0.0020864912    61.775209    1855.3769 
  945000   -204362.57    1.6452223 0.00077831886     61.72175    1868.8185 
  950000   -204267.73    1.6760935 -0.0010534437    61.764884    1882.2669 
  955000   -204275.75    1.6583369 -0.0035255028    61.747677    1895.7373 
  960000   -204393.03    1.6680798 -0.0012919997    61.712855    1909.2122 
  965000   -204360.25    1.6757048 -0.0040938858     61.78714    1922.6722 
  970000    -204452.5     1.686516 -0.009567703    61.760943    1936.1308 
  975000   -204299.03    1.6343987 0.0047136951     61.66838    1949.5848 
  980000   -204254.84    1.6673843 -0.0046262787    61.770982    1963.0594 
  985000   -204443.71    1.6420824 0.0031079766    61.683853    1976.4839 
  990000   -204282.28    1.6412901 -0.0012100618    61.749342    1989.9433 
  995000   -204316.95    1.6577278 9.2742041e-05    61.721235    2003.4079 
 1000000   -204403.24    1.7255827 0.0058848145    61.595659    2016.8026 
 1005000   -204435.73    1.6801802  0.000449731    61.615065    2030.2706 
 1010000   -204257.23    1.6896149 -0.0035701261    61.769118     2043.791 
 1015000   -204322.33    1.6325601 -0.002457459    61.741395    2057.2128 
 1020000   -204472.78     1.647186 -0.0022767448    61.713888    2070.6183 
 1025000   -204386.58    1.6458791 -0.0019390684    61.678426    2084.0494 
 1030000   -204433.67    1.6535333  0.005498516    61.576118     2097.474 
 1035000   -204568.11    1.6548043 -0.004142893    61.661118    2110.9394 
 1040000   -204602.79    1.6567869 0.0014570201    61.580769    2124.3736 
 1045000   -204507.53    1.6532128 -0.0066535754    61.703994    2137.8511 
 1050000    -204499.7    1.6257187 -0.0037584882    61.634297    2151.2906 
 1055000   -204371.79    1.7140272 0.0016010983    61.638701    2164.7289 
 1060000   -204459.87    1.7037208 0.0026740397    61.618004    2178.1894 
 1065000   -204206.11    1.6882133 0.0011370327     61.68694    2191.6266 
 1070000    -204426.8    1.6754688  0.001925684    61.611944    2205.1054 
 1075000   -204504.21    1.6282103 -0.00097761341    61.623696    2218.5547 
 1080000   -204220.45      1.61502 -0.0017340315    61.692221    2232.0331 
 1085000   -204355.02    1.7199744 -0.0042459681    61.743207    2245.4433 
 1090000   -204359.05     1.676374 -0.0046932983    61.814887    2258.8405 
 1095000   -204290.81    1.6542754 0.0038732681    61.636257    2272.3083 
 1100000   -204447.02    1.6728572 -0.001247674    61.675201    2285.7425 
 1105000   -204399.65    1.6547404 -0.0025088396    61.676396    2299.1938 
 1110000   -204348.69    1.6296127 -0.0019385723    61.663689    2312.6015 
 1115000   -204481.69    1.6726543 -0.0039546381    61.718223    2326.0526 
 1120000   -204461.91    1.6764401 -0.0026652048    61.765905    2339.4776 
 1125000   -204141.55    1.6775633 -0.0018730703    61.732526    2352.9021 
 1130000    -204297.5    1.6811973 0.0032994172    61.638918    2366.3037 
 1135000    -204263.8      1.65611 -0.003244756    61.764375      2379.71 
 1140000   -204404.34    1.6257533 1.8277491e-05    61.706287    2393.1139 
 1145000   -204191.56    1.6661725 -0.0010009407    61.742575    2406.5454 
 1150000   -204382.12    1.6462482 0.00087187389    61.689502    2419.9656 
 1155000   -204370.73    1.6426256 -0.0030065088    61.691969    2433.3766 
 1160000   -204208.43    1.6364584 -0.0049530348    61.816077    2446.8285 
 1165000   -204294.08    1.6874624 0.00032671198    61.647968     2460.232 
 1170000   -204258.57    1.6831332 -0.0017179344     61.76827    2473.6667 
 1175000   -204351.24    1.6491437 -0.0047108409    61.737453    2487.1184 
 1180000   -204404.96    1.6605736 0.00074729023    61.647745    2500.5523 
 1185000   -204453.31    1.6324975 -0.0039611185    61.735298    2514.0205 
 1190000   -204343.46    1.6999985 0.0035715515    61.702441    2527.4674 
 1195000   -204384.39    1.6783126 0.0083085822    61.548813    2540.8796 
 1200000   -204280.48    1.6412702 -0.0016251909    61.721135    2554.2973 
 1205000   -204114.99    1.6246345 0.0049985247    61.704241    2567.7368 
 1210000   -204142.83    1.6488109 0.00061139546    61.700083    2581.1897 
 1215000   -204293.37    1.6791713 0.0026073656    61.704939    2594.6238 
 1220000   -204178.79     1.683371 0.0014521215    61.658832    2608.0875 
 1225000   -203989.26    1.7181239 -0.002350973    61.810132    2621.5307 
 1230000   -204172.46    1.6482481 -0.0056530422    61.849766     2634.929 
 1235000   -204095.84     1.684805 -0.0011272203    61.832439    2648.3352 
 1240000   -204375.23    1.6320137 0.0021195474    61.675863    2661.7403 
 1245000   -204427.99     1.675582 -0.0017584477    61.625369    2675.1776 
 1250000   -204578.69    1.6357375 0.0018732804    61.595926    2688.6321 
 1255000   -204557.02    1.6507212 -0.0044274293     61.66289    2702.0948 
 1260000   -204266.94    1.6747742 -0.0064629487    61.822284    2715.5445 
 1265000   -204316.11    1.6523882 -0.0055722363    61.777111    2728.9776 
 1270000   -204362.63    1.6755793 -0.0022539252    61.704546    2742.4088 
 1275000   -204374.76    1.5953114 -0.0020561999     61.71159    2755.8672 
 1280000    -204502.1     1.646394 0.00032325137    61.649582    2769.3549 
 1285000   -204353.91     1.666824 -0.0019452276    61.646317    2782.8661 
 1290000    -204675.6    1.6350643 -0.0021060841    61.587989    2796.3212 
 1295000   -204493.13    1.7063734 -0.0043812442    61.630467    2809.7991 
 1300000   -204501.61     1.649526 0.0020164944    61.623297    2823.2709 
 1305000   -204442.72    1.7061354 0.0043798716    61.615724    2836.7501 
 1310000   -204293.72    1.6539035 0.0035720901    61.671692    2850.2512 
 1315000   -204215.63    1.7068665 0.0013907687     61.75539      2863.67 
 1320000   -204203.12    1.6536852 0.0032465251    61.766653    2877.0809 
 1325000   -204177.59      1.59449 -0.0036580396    61.844255    2890.5178 
 1330000   -204220.39    1.6285911 -0.0016464116    61.785175    2903.9213 
 1335000   -204233.43     1.684873 -0.00092350993    61.730434    2917.3001 
 1340000   -204317.48     1.703299 -0.0019470426    61.691637    2930.7751 
 1345000   -204106.54    1.7177153  0.002459557    61.744607    2944.1909 
 1350000   -204149.04    1.6385432 -0.0050599163    61.817746    2957.6353 
 1355000   -204260.62    1.6367318 0.0040800658     61.68942    2971.0589 
 1360000   -204160.15    1.6337469 -0.0037623822    61.802068     2984.489 
 1365000   -204067.51    1.6323722 0.0032452188    61.745041    2997.8943 
 1370000   -204116.35    1.6316456 -0.0044851426    61.848129    3011.3562 
 1375000   -204255.21    1.6985966 0.00075011396     61.68585    3024.7491 
 1380000   -204398.15    1.6397966  0.003835419    61.670095    3038.2207 
 1385000   -204301.95    1.6581261 0.0014726821    61.714635    3051.6347 
 1390000   -204065.58    1.6902394 -0.0012633846    61.750619    3065.0712 
 1395000   -204207.54    1.6719764 0.0016362649    61.657181    3078.5479 
 1400000    -204232.1    1.6928386 0.00087272443    61.771761     3091.985 
 1405000   -204269.17    1.6791425 0.00032289934    61.719383    3105.4187 
 1410000   -204367.95    1.6489028 -0.0026041334     61.71139     3118.878 
 1415000   -204290.44    1.6785095 -0.0062794558    61.785614    3132.2701 
 1420000   -204365.66    1.6408691 -8.2820241e-05    61.682456    3145.6985 
 1425000    -204273.8    1.6435543 -0.0003747478    61.751109    3159.1684 
 1430000   -203970.22    1.7467478 -0.0023381479    61.808413    3172.6134 
 1435000   -204019.15    1.6656889 0.0025971525    61.758413    3186.0208 
 1440000   -204114.15    1.6700559  0.002015048    61.745314    3199.4363 
 1445000   -204144.91    1.5769153 0.0068639519    61.713146    3212.8364 
 1450000   -204225.39    1.6573812 -0.0032984921    61.799014    3226.2734 
 1455000   -204394.41    1.6813017 0.0089038904    61.621626    3239.7458 
 1460000   -204404.57    1.6308767 -0.0017404439    61.692013    3253.2107 
 1465000   -204494.52     1.635183 0.0038757474    61.617937    3266.6662 
 1470000   -204415.72    1.6737686 -0.00019112249    61.726196    3280.1168 
 1475000   -204105.63    1.6346082 0.0019034786    61.730483    3293.5864 
 1480000   -204339.29    1.6613346 -0.0002580658    61.751121    3307.0392 
 1485000   -204192.08    1.6587264 -0.0019440924    61.803232    3320.4419 
 1490000   -204172.58    1.7033292 -0.0013734251    61.857338    3333.8696 
 1495000      -203821    1.6182806 -0.0023917737    61.922312    3347.3001 
 1500000   -203930.78    1.7000454 0.00076657282    61.876011    3360.6796 
 1505000   -203871.59    1.6376549 -0.0072574069    61.980445    3374.0673 
 1510000   -203814.82    1.6169128 -0.00014228375     61.97182     3387.465 
 1515000   -203936.52    1.6492132 0.0011783695    61.909895    3400.8343 
 1520000   -203822.36    1.6811964 -0.002379655    61.939937    3414.2254 
 1525000   -203962.39    1.6432201 -0.0011450979    61.861298    3427.6065 
 1530000   -203972.51    1.6317257 -0.0010229807    61.934667    3441.0295 
 1535000    -204034.4    1.6661323 -0.0033311119    61.915299    3454.3874 
 1540000   -204118.48    1.6509576 0.00015239782    61.835083    3467.7664 
 1545000   -204098.19    1.6233255 0.00039433618    61.818108    3481.1629 
 1550000   -204126.49     1.694246 0.0010098081    61.861444    3494.5738 
 1555000   -204321.76    1.6719661 0.00042190401    61.776282     3507.958 
 1560000   -204055.11    1.6462916 -0.0044658419    61.890629    3521.3521 
 1565000   -203955.67     1.661755 -0.004842628     61.87331    3534.7469 
 1570000   -204070.75    1.6565227 -0.0058721123    61.901015    3548.1207 
 1575000   -204207.61    1.5927177 -0.007544293    61.956003    3561.5248 
 1580000   -203774.35    1.6348162 0.0054570549     61.90691    3574.9016 
 1585000   -203986.67    1.6877682 -0.00063382732    61.874477    3588.2779 
 1590000   -204017.21    1.6567648 0.0039469133    61.792971    3601.6899 
 1595000   -203889.32    1.6492279 -0.0047376931    61.913097    3615.0662 
 1600000    -204013.1    1.6511115 -0.0065247114    61.903385    3628.5023 
 1605000   -203892.37    1.7133396 0.0032959524    61.858698    3641.8973 
 1610000    -203934.9    1.6518695 0.0030101473    61.903725    3655.2497 
 1615000   -204075.52     1.639939 0.0036311256     61.81638    3668.6439 
 1620000    -204016.9    1.6858738 -0.0032270209    61.833091    3682.0453 
 1625000   -203912.91     1.667223 -0.0019727803     61.94197    3695.4114 
 1630000    -203967.3    1.6286354 -0.0039313069    61.893886    3708.8064 
 1635000   -203987.85    1.6946238 -0.0055664808     61.94174    3722.2051 
 1640000   -203888.76    1.6920571 -0.00074209296    61.894084    3735.6083 
 1645000   -204072.49    1.6847327 -0.0039885019    61.894808    3749.0634 
 1650000   -203959.89    1.6755862 0.0041872885    61.826583    3762.4274 
 1655000   -203905.29    1.6368558 0.0067099059    61.799117    3775.8136 
 1660000   -204100.25    1.5992228 -0.0058313247    61.843239    3789.2192 
 1665000    -204284.4    1.6770202 -0.0023570809    61.764718    3802.6163 
 1670000   -204194.67    1.6800047 -9.518726e-05    61.750907    3816.0188 
 1675000   -204029.08    1.6466159 -0.0031743803    61.817023    3829.3893 
 1680000    -203801.5    1.6188751 -0.00032254269    61.848775    3842.7889 
 1685000   -203968.69    1.6656594 -0.0068175553    61.897186     3856.146 
 1690000   -204083.42    1.6835427 7.2125001e-05    61.811754    3869.5376 
 1695000      -204177     1.625392 -0.00097376448    61.770304    3882.9593 
 1700000   -204150.33    1.7024708 -0.005153016    61.850563    3896.3621 
 1705000   -204133.13    1.6860385 -0.0017827846    61.785432    3909.7721 
 1710000   -204154.52    1.6769318 0.0010773864    61.747067    3923.1858 
 1715000   -204150.59    1.6313538 -0.00065076485    61.790405    3936.5816 
 1720000   -203950.03    1.6901717 0.0025690733    61.865385    3949.9581 
 1725000   -203901.76    1.6772462 0.0067694175    61.807151    3963.3515 
 1730000   -203808.89    1.6570103 0.00047384433    61.875274     3976.698 
 1735000   -203833.16    1.6562856 -0.0051874063    61.943424    3990.1229 
 1740000   -203736.11    1.6530015 -0.0063656847    61.991267    4003.4502 
 1745000   -203840.37    1.6510386 0.0046939805    61.825322    4016.8395 
 1750000   -203965.66    1.6362355 -0.0020884486     61.88048    4030.2143 
 1755000    -203976.1    1.6673548 -0.0034922995    61.888833    4043.6067 
 1760000    -204100.5    1.6733691 0.00073301004    61.788473    4056.9957 
 1765000   -203942.12    1.6264874 -0.0033392468    61.941409    4070.3701 
 1770000   -203850.91    1.6832596 0.0022742696    61.856244    4083.7366 
 1775000   -203979.86    1.6191469  0.002840165    61.846332    4097.1209 
 1780000   -203995.12    1.6445058 -0.00070249545    61.819746     4110.473 
 1785000    -204154.2    1.7008795 0.00098647556    61.795026    4123.8807 
 1790000   -204028.92    1.5911857 -0.0046982719    61.838039    4137.3035 
 1795000   -204156.57    1.6559135 0.0041148044    61.764217    4150.7167 
 1800000   -204136.23    1.6572702 -0.00059117304     61.82049    4164.0868 
 1805000   -204300.19    1.6802135 -0.0013967498    61.768673    4177.5064 
 1810000      -204122    1.6708622 0.00043830521    61.766998    4190.9056 
 1815000      -204240    1.6151591 -0.0094694048     61.85478    4204.3133 
 1820000   -204291.85    1.6586873 0.0019410051    61.673564     4217.727 
 1825000   -204372.97    1.6675955 -0.0053971876    61.725056    4231.1904 
 1830000    -204267.5    1.6696691 0.00037338495    61.741959    4244.6357 
 1835000   -204178.33    1.6277848 -0.0025986801    61.743708    4258.1071 
 1840000   -204370.21    1.6480369 -0.00099333124    61.715439    4271.5491 
 1845000   -204267.59    1.6700445 -0.0019677024    61.744645    4284.9696 
 1850000   -204237.71    1.6576719 0.0019086208    61.761135    4298.3859 
 1855000   -204255.23    1.6554256 -0.0031601086     61.78405    4311.8064 
 1860000   -204168.34    1.6743227 -0.00034955772    61.731976     4325.242 
 1865000   -204192.72    1.6760775 -0.0023047727    61.767375    4338.6836 
 1870000   -204170.46    1.7245514 -0.0029794092    61.779334    4352.1362 
 1875000    -204228.2     1.622244 0.0017604925    61.741782    4365.5882 
 1880000    -204053.3    1.6442735 0.0041679515    61.754844     4379.045 
 1885000   -204057.64    1.6825529 0.0047968131    61.707298    4392.4913 
 1890000   -204011.85    1.6795793 0.0014517099    61.746259    4405.8975 
 1895000    -204056.2    1.6480982 -0.00029225015    61.795427     4419.297 
 1900000   -203886.79    1.6440315 -0.0001156758    61.812319    4432.7118 
 1905000   -203961.48    1.6108177 0.00035027779    61.869184    4446.0969 
 1910000   -203937.13     1.674147 0.0011516159    61.829922    4459.4941 
 1915000   -204086.01    1.6787224   0.00113777    61.795245    4472.8469 
 1920000   -204207.06    1.6457363 -0.002402962    61.819091    4486.2421 
 1925000    -204124.5    1.6601218 -0.0008213123    61.782188    4499.6603 
 1930000   -204161.96    1.6078729 0.0032738788    61.722362    4513.0774 
 1935000   -204166.18    1.6376021 -0.004024339    61.795739    4526.4252 
 1940000   -204223.34    1.6954967 -0.0045815235    61.789568    4539.8035 
 1945000   -204008.14     1.645846 -0.0063635898    61.900094     4553.219 
 1950000   -204116.48     1.711905 -0.0026186065     61.82872    4566.6019 
 1955000   -204208.01    1.6737419 -0.0014373052    61.777948    4580.0238 
 1960000    -204205.2    1.6331429 0.0050739413    61.710337    4593.4289 
 1965000   -204051.32    1.6175912 -0.0051520433    61.822739    4606.7925 
 1970000   -204428.65    1.6390319 -0.0033222636    61.704598    4620.2216 
 1975000   -204283.83    1.6069402 -0.0021699117    61.690997    4633.6821 
 1980000   -204141.65    1.7206646 -0.002158533    61.779584    4647.0517 
 1985000   -204144.13      1.64972 -0.00013764168    61.737106    4660.4797 
 1990000   -203976.56    1.6612809 0.0008413915    61.845525    4673.9365 
 1995000   -204140.46    1.7108762 -0.0051227674    61.881531    4687.3489 
 2000000   -204172.38    1.6347435 0.0017679322    61.745576    4700.7765 
 2005000   -204061.17    1.6997206 -0.005525641    61.833615    4714.2259 
 2010000   -204265.23    1.6427815 -0.010199164    61.877545    4727.6543 
 2015000   -204280.29    1.6532058  0.004735066    61.649789    4741.0926 
 2020000   -204240.35    1.6799014 0.00057619693    61.758853    4754.5142 
 2025000   -204082.04    1.6709133 0.0036659749    61.749761    4767.9321 
 2030000   -204190.95     1.655248 -0.00070370602     61.77423    4781.3512 
 2035000   -204131.91    1.6248745 -0.00053176133    61.762492     4794.766 
 2040000   -203960.71    1.6987427 0.00024769617     61.84383    4808.1721 
 2045000   -203988.14    1.6472106 -0.0030755044    61.788559    4821.5715 
 2050000   -204134.17    1.6698848  0.006011501    61.671353    4834.9567 
 2055000      -204089    1.6508008 -0.0098197279    61.926239    4848.3885 
 2060000   -204214.29    1.6772245 -0.0022462048    61.788574    4861.7823 
 2065000   -204067.89    1.6505566 0.0030405908    61.786752    4875.1424 
 2070000   -204127.65    1.6460477 0.0046774204    61.790615    4888.5205 
 2075000    -204273.3    1.6938947 0.0048595561    61.667603    4901.9402 
 2080000   -204378.47     1.642621 0.0003407808    61.698553    4915.3892 
 2085000   -204416.88    1.6458372 -0.0036737859    61.736825    4928.8126 
 2090000   -204152.65    1.6668477 -0.0016031812    61.787803    4942.2392 
 2095000   -204503.14    1.6370124 0.0053689546    61.585799    4955.6674 
 2100000   -204326.28    1.6875949 -0.0079203667    61.762374    4969.1584 
 2105000    -204278.6    1.6433919 0.0012250782     61.65994     4982.607 
 2110000   -204298.74    1.6731208 -0.004357296    61.739992     4996.033 
 2115000   -204250.77    1.6283613 0.0051620774    61.639349    5009.5173 
 2120000   -204205.66    1.6551544 -0.0053542838    61.869032     5022.946 
 2125000   -204352.89     1.674997 0.00081614388    61.767715    5036.3558 
 2130000   -204450.43    1.7056635 0.0027588935    61.685901    5049.7751 
 2135000   -204253.96    1.6680294 -0.0022072879    61.762267    5063.1886 
 2140000   -204400.51     1.674765 0.0032896743     61.70803    5076.5802 
 2145000   -204074.44    1.6562453 -0.00039281862    61.865933    5089.9681 
 2150000   -204136.39    1.6793974 0.00015671292    61.803602    5103.3611 
 2155000   -204165.47    1.6291996 -0.0023215246    61.826145    5116.8192 
 2160000   -204046.55    1.6841673 -0.0030649555    61.832374     5130.235 
 2165000   -204097.01    1.6415821 0.0020374254    61.794994    5143.6374 
 2170000   -204216.05    1.6099377 -0.0048009634    61.828869    5157.0693 
 2175000   -204247.18    1.6769705 0.0033595051    61.788086    5170.4979 
 2180000    -204182.4     1.658147 0.0010988099    61.806581    5183.9002 
 2185000   -204204.37    1.6494381 -0.0029741179    61.776311    5197.3255 
 2190000   -204064.15    1.6498898 -0.00036879594    61.806835    5210.7634 
 2195000   -204255.11    1.6343132 7.3392602e-05    61.783307    5224.1695 
 2200000   -204335.65    1.6821957 0.0015520741    61.731409    5237.6089 
 2205000   -204347.26    1.6727509 0.0029612368    61.675733    5251.0654 
 2210000   -204071.56    1.6681158 0.00034422336    61.824471    5264.4811 
 2215000   -204147.46    1.6700184  0.002941888    61.717284    5277.9305 
 2220000   -204462.23    1.6347438 -0.0026673158    61.739687    5291.3711 
 2225000   -204310.04    1.6530541 0.00084207788    61.673479    5304.8014 
 2230000    -204346.4     1.659226 -0.003414855    61.663492    5318.2754 
 2235000   -204166.49    1.6221219 0.0041186239    61.686312    5331.7037 
 2240000   -204332.07    1.6562728 -0.00060220116    61.733735     5345.182 
 2245000   -204488.89    1.6496677 0.0029665698    61.661589    5358.6551 
 2250000   -204518.27    1.6786952 0.0055265634    61.566736    5372.1022 
 2255000   -204616.35    1.6525362 -0.00061663525    61.634705    5385.5618 
 2260000   -204482.12    1.6609044 -0.0028542796    61.665894    5399.0444 
 2265000   -204532.45    1.6452839 -0.00027714578     61.69294    5412.5235 
 2270000   -204446.01    1.6357419 -0.0038357199    61.740954     5425.985 
 2275000   -204651.54    1.6922853 0.0027304789    61.603699    5439.4288 
 2280000   -204715.81    1.6484042 0.0024568069    61.609105    5452.8807 
 2285000    -204496.8     1.629368 0.0023129078    61.668965    5466.3686 
 2290000   -204559.36    1.6495299 -0.0027977727    61.636227    5479.7917 
 2295000   -204329.95    1.6819888 0.0042506342    61.654215    5493.2994 
 2300000   -204252.68    1.7132861 -0.0017807786    61.761424    5506.7616 
 2305000   -204322.35    1.6114407 -0.002442048    61.774951    5520.2109 
 2310000   -204318.07    1.7066468 0.0044592534    61.682986    5533.5979 
 2315000   -204131.62    1.6753227 -0.00072746949    61.753945     5547.028 
 2320000   -204198.81    1.6690943 -0.0039210496    61.781721    5560.4619 
 2325000   -204555.79     1.639842 0.0034151911    61.621186    5573.9153 
 2330000   -204251.21    1.6059953 0.00060285833    61.729226    5587.3282 
 2335000   -203999.75    1.6423202 0.0018944155     61.79371    5600.7597 
 2340000   -204172.58    1.6667913 -0.0028044718    61.812678     5614.155 
 2345000   -204291.26    1.6433028 -0.0010415072    61.765949    5627.5666 
 2350000    -204250.5     1.709808 0.0041278336    61.616642    5640.9894 
 2355000   -204288.61    1.6729541 0.0057906502    61.612502    5654.4298 
 2360000   -204136.36    1.6630947 -0.0046898945    61.806705    5667.8905 
 2365000   -204320.36    1.6028195 -0.0063021184    61.817555    5681.3152 
 2370000   -204242.97    1.6859336 0.00018851982    61.746689    5694.7644 
 2375000   -204358.56    1.7586042 0.0018837894    61.718398    5708.2213 
 2380000   -204049.28    1.6569166 -0.0044260947    61.794465    5721.6923 
 2385000   -204298.81    1.6805575 0.00066160218     61.69076    5735.1366 
 2390000   -204270.53    1.6683622 0.0038343924     61.66319    5748.5683 
 2395000   -204195.26    1.6403596 0.0017675803    61.736028    5761.9966 
 2400000   -204129.49    1.6918247 0.0053955312     61.77997      5775.41 
 2405000   -203988.31    1.6435477 -0.00091428129    61.876374    5788.8363 
 2410000    -203844.6     1.704541 -0.0086406336    62.043154    5802.2039 
 2415000   -203969.37    1.6539267 -3.5289156e-05    61.869736      5815.59 
 2420000   -203965.34    1.6321165  0.004607501    61.800898    5829.0312 
 2425000   -204229.52    1.6697042  0.004265952    61.742442    5842.4387 
 2430000    -204249.1    1.6476627 -0.0017245706     61.79152    5855.8709 
 2435000   -203952.95    1.7121258 -0.003669836    61.901768    5869.2877 
 2440000   -204153.26     1.659969 0.0022270497    61.764449    5882.7212 
 2445000   -204291.05    1.6552548 -6.7523663e-05     61.74275    5896.1504 
 2450000   -204172.47     1.649362 0.0028775468    61.761481    5909.5461 
 2455000   -204469.34    1.6236303 0.00067961319    61.689764     5922.931 
 2460000   -204459.56    1.6574933 0.0043692015    61.666175    5936.3357 
 2465000   -204324.51    1.6438363 6.3346533e-05    61.753993    5949.7224 
 2470000    -204394.5    1.6504478   0.00317363    61.625745    5963.1468 
 2475000   -204209.67    1.6337119 -0.0011156826    61.739053    5976.5252 
 2480000   -204339.58    1.7122525 -0.0018744207    61.725367    5989.9321 
 2485000   -204303.16     1.642853 -0.0079801019    61.786961    6003.3874 
 2490000   -204455.51    1.6453486 -0.00050439238     61.65975     6016.838 
 2495000   -204384.21    1.7040827 0.0075356908    61.624056    6030.2884 
 2500000   -204410.77    1.6187473 -0.00077665964    61.726232    6043.7485 
 2505000    -204369.6    1.6812359 -0.0081315842    61.764208    6057.1913 
 2510000   -204330.84      1.65522 -0.0035433975    61.729297    6070.6316 
 2515000   -204196.11     1.657614 -0.0027996955    61.768899    6084.0774 
 2520000   -204276.86    1.6730832 -0.00018112573    61.732104    6097.5417 
 2525000   -204507.44    1.6701082 -0.00093315528    61.643814    6111.0033 
 2530000   -204487.08    1.6479954  0.002358245    61.646994    6124.4186 
 2535000   -204221.82    1.6631683 -0.0061406357    61.800555    6137.8616 
 2540000    -204129.3    1.6411058 -0.005759274    61.846079    6151.2945 
 2545000   -204392.13    1.6630887 -0.0073124283    61.820924    6164.7343 
 2550000   -204337.89    1.5928333 -0.004828852    61.742552    6178.1699 
 2555000   -204479.05    1.6557371 0.00096425737     61.66626     6191.617 
 2560000   -204487.89    1.6787235 -0.0044858268     61.71001    6205.0759 
 2565000   -204462.68    1.6401665 -0.00067598751    61.683937    6218.5307 
 2570000   -204486.91    1.6752012 -0.010866687    61.779874    6231.9933 
 2575000    -204341.9    1.6472615 -0.0082114338    61.806557    6245.4565 
 2580000   -204482.44    1.6598079 0.0024131384    61.668025     6258.905 
 2585000   -204460.75    1.6735162 -0.00083622944    61.626504    6272.3621 
 2590000   -204599.24    1.6740551 0.0011556372    61.640364    6285.8349 
 2595000    -204523.9    1.6546077 -0.004507826    61.753441    6299.2863 
 2600000   -204512.66     1.637418  0.001982991    61.651869    6312.7186 
 2605000   -204313.38    1.6717487 -0.0040838744    61.804735    6326.2008 
 2610000   -204487.04    1.7286882 -0.00094208608    61.654063    6339.6434 
 2615000   -204381.48    1.7144644 0.0039568202    61.628494    6353.0931 
 2620000   -204462.76    1.6529556 0.0083706529    61.510902    6366.5584 
 2625000   -204578.46    1.6917393 -0.0029854011    61.688479    6380.0223 
 2630000   -204583.62    1.6518833 -0.0043803181    61.682924    6393.4886 
 2635000   -204627.25    1.6618334 0.00034599929    61.600816    6406.9302 
 2640000   -204314.29    1.6691345  0.003167058    61.681445     6420.344 
 2645000   -204386.37    1.6635887 -0.0038657905    61.701188     6433.818 
 2650000   -204385.83    1.7333716 -0.002000129    61.683711    6447.2837 
 2655000   -204516.66    1.6402916 -0.000156774    61.687696    6460.7243 
 2660000   -204469.01    1.6116709 0.00014268259    61.622912    6474.1615 
 2665000   -204593.55    1.6254947 0.0044286372    61.570556    6487.6191 
 2670000   -204174.74    1.6846368 -0.00094857497    61.743567    6501.0421 
 2675000   -204459.51     1.628911 -0.0007680389    61.694584    6514.4768 
 2680000   -204447.75    1.6560631 -0.0050433695    61.763855    6527.9562 
 2685000   -204361.12    1.6768873 0.0022763704    61.587327    6541.3992 
 2690000   -204453.58    1.5826608  -0.00219052    61.680731    6554.8376 
 2695000   -204512.77    1.6380906 0.0028601545    61.625421    6568.2888 
 2700000   -204313.72     1.674007 0.0018814022    61.657456    6581.7145 
 2705000   -204461.76    1.6868679 0.0027260131    61.683886    6595.1229 
 2710000   -204513.42    1.6704898 0.0029604568    61.632501    6608.5751 
 2715000   -204337.59     1.658167 -0.0012767806    61.758829    6622.0403 
 2720000   -204538.27    1.6076868 -0.0014632823    61.588056    6635.4732 
 2725000   -204482.19    1.6376398 -0.0044199828    61.658481    6648.9628 
 2730000   -204580.74     1.642424 -0.00068360579    61.652231    6662.4667 
 2735000   -204573.59    1.6198773 -0.00095559372    61.645692    6675.9766 
 2740000   -204428.24    1.6994018 -0.0014199126    61.669372    6689.3988 
 2745000   -204530.14    1.6608569 0.0040519124    61.622382    6702.8742 
 2750000   -204371.64    1.6559059 -0.0057586803    61.786272     6716.336 
 2755000   -204116.58     1.672477 0.0017905266    61.787349    6729.7476 
 2760000   -204258.06    1.6256794 0.0015012132    61.716304    6743.1698 
 2765000   -204244.04    1.6500393 -0.0042854445    61.736864    6756.6216 
 2770000   -204537.15    1.6431696 0.0042656013    61.614885    6770.0371 
 2775000   -204349.79    1.6912658 -0.0006492106     61.67239    6783.4241 
 2780000   -204332.31    1.6743656 0.0011965869    61.704221     6796.846 
 2785000   -204351.45    1.6654609 0.0020849489    61.678759    6810.2549 
 2790000   -204174.98    1.6485977 0.00099736406    61.749495     6823.681 
 2795000   -204434.43    1.6334771 0.0041820249    61.652472    6837.1336 
 2800000   -204198.87    1.6357083 -0.0052290977    61.836995    6850.5699 
 2805000   -204114.51    1.6838547 0.00097840884    61.810656    6863.9639 
 2810000   -204122.62    1.7072497 -0.0016903859    61.856386    6877.3998 
 2815000   -204103.85    1.7049959 0.0035632934      61.7368    6890.7871 
 2820000   -204189.43    1.6225126 -0.0038890926    61.814164    6904.2121 
 2825000   -204196.13    1.6841483 -0.001982847     61.84343    6917.6237 
 2830000   -204186.34    1.6472235 -0.0046144661    61.813947    6931.0785 
 2835000   -204137.56    1.6395119 -0.0081816213    61.897176    6944.5175 
 2840000    -204335.5    1.6917723 -0.005544211    61.829135    6957.9421 
 2845000   -204190.27    1.7187583 -9.6138725e-05    61.916594    6971.3368 
 2850000   -204081.98    1.6046179 0.0010782393    61.844834    6984.7054 
 2855000   -204191.24    1.6634525  0.002541982    61.842969    6998.1241 
 2860000   -204188.21    1.6644206 0.0036758705    61.755659    7011.5252 
 2865000   -204257.45    1.6491083 0.00096740344    61.782776    7024.9408 
 2870000   -204156.02    1.7215181 -0.0059282963    61.906922    7038.3178 
 2875000   -204184.96    1.6463374 0.00099906239    61.791087     7051.735 
 2880000   -204322.77    1.6316671 0.0067691057    61.673452    7065.1436 
 2885000   -204500.74    1.6287113 0.0020927959    61.677104    7078.5819 
 2890000    -204488.3    1.6552866 0.0015226947    61.645988    7092.0176 
 2895000   -204328.62    1.6430311 0.0022227236    61.661776    7105.4723 
 2900000   -204441.68    1.6487166 0.0010510476    61.682245    7118.9166 
 2905000   -204310.74     1.729979 -0.0026171419    61.764764    7132.3827 
 2910000   -204203.55     1.671233 -0.0015425992    61.758692    7145.7934 
 2915000   -204224.69    1.6289657 0.0018842886    61.757161    7159.2493 
 2920000   -204164.11    1.6823973 0.0017659722     61.78337    7172.6691 
 2925000   -204312.26    1.6548041 -0.0048146492    61.738849    7186.1206 
 2930000   -204214.25    1.6457381 0.0061043288    61.678183    7199.5473 
 2935000   -204052.13    1.6203135 0.0017480924    61.765621    7212.9562 
 2940000   -204284.11    1.6463834 -0.0017335338    61.728276    7226.3508 
 2945000   -204347.39    1.6357186  0.010351051    61.586634    7239.8057 
 2950000   -204366.98    1.6546143  0.007555408    61.674074    7253.2186 
 2955000   -204415.97    1.6944567 -0.0011985768    61.699537    7266.6184 
 2960000   -204262.78    1.6624603 0.00046962764    61.709335    7280.0389 
 2965000   -204221.21    1.6308292  0.004351615    61.726758    7293.4367 
 2970000   -204065.55    1.6834631 0.0035902812    61.762769    7306.8431 
 2975000   -204133.87    1.7358839 0.0036327406     61.79237    7320.2354 
 2980000    -204174.6    1.6642186 -0.0001984114    61.827389    7333.6173 
 2985000    -204117.9    1.6664821 0.0026097518    61.721108    7346.9979 
 2990000   -204271.33    1.6365053 -0.00093166473     61.78805    7360.3756 
 2995000   -204125.08    1.6095488 0.00040686077    61.773378     7373.788 
 3000000   -204079.06    1.6870492 0.0022881244    61.780426    7387.1784 
 3005000   -204147.08    1.7072306 0.0012569668    61.764818    7400.6047 
 3010000   -204105.15    1.6829656 0.0033974267    61.754526    7414.0016 
 3015000   -204006.63    1.6761286 0.00065993046    61.773395    7427.4153 
 3020000   -204099.22    1.6952998 0.00081335235    61.809824     7440.828 
 3025000    -204144.6    1.6328667 -0.0047919598    61.862536    7454.2749 
 3030000    -204144.8    1.7185246 0.0031709784    61.724622    7467.6553 
 3035000   -204433.05    1.6621074 0.0049429191    61.665368    7481.0478 
 3040000   -204306.82    1.6779327 -0.00049086419    61.752327    7494.4597 
 3045000   -204124.67     1.718815 0.0056144455    61.694398    7507.8852 
 3050000   -204176.48    1.6360465 0.0046293566    61.635049    7521.3526 
 3055000   -204339.97    1.6666528 0.0019096699    61.637802    7534.8179 
 3060000   -204237.85    1.6550802 0.0015323508    61.707057    7548.2466 
 3065000   -204274.66    1.6196573 0.0044025199    61.652777    7561.6523 
 3070000   -204247.77     1.665503 -0.0058139747    61.712425    7575.1108 
 3075000   -204162.12    1.6453426 -0.0059538016     61.78841    7588.5766 
 3080000   -204145.87     1.678291  -0.00337059    61.825326    7602.0328 
 3085000   -204220.83    1.6634751 -0.0028155571    61.784068    7615.4179 
 3090000   -204036.38    1.6307528 -0.003067411    61.818314    7628.8313 
 3095000   -204154.37    1.7260574 0.0031093952    61.781967    7642.2174 
 3100000   -204143.19    1.6614916 -0.0073010172    61.881627    7655.5976 
 3105000   -204249.89    1.6994244 -0.00013431048    61.752928    7669.0314 
 3110000   -204007.81    1.6444114 0.0014363692    61.803348    7682.4605 
 3115000   -203972.03    1.6594542 -0.00094561563    61.839105    7695.8725 
 3120000   -203997.51      1.72782 0.0011208151    61.829091    7709.2695 
 3125000   -204034.12    1.6110017 0.0018005682    61.832718    7722.6722 
 3130000   -204039.93    1.7028216 0.0019806961    61.778997    7736.0637 
 3135000   -203979.23    1.6829271 -0.0064564692    61.940543    7749.5047 
 3140000   -204032.59    1.6774082 -0.005579326     61.84088    7762.9192 
 3145000    -204213.8    1.6465101 0.0035332393    61.743512    7776.3305 
 3150000   -204262.27    1.6455188 -0.0024076155    61.813603     7789.766 
 3155000   -204020.67    1.7312372 0.0067810943    61.777459      7803.18 
 3160000   -203987.68    1.6830578 0.0030751395    61.814546    7816.5646 
 3165000   -204010.17     1.621031 0.0040560548    61.752584    7829.9915 
 3170000   -203932.97    1.6883946 0.00077184148    61.881019     7843.382 
 3175000   -203955.13    1.6651515  0.002334595    61.880173    7856.7191 
 3180000   -203866.78    1.6661352 -0.0026998824    61.916082    7870.0841 
 3185000    -203794.5    1.6215118 -0.0013620145    61.927741    7883.4496 
 3190000   -203840.64    1.6706345 0.0061820311    61.860959    7896.7886 
 3195000   -203993.09    1.6025676 0.00090853887    61.906424    7910.1338 
 3200000    -204064.5    1.6359031 0.0086646739    61.790959    7923.4928 
 3205000   -204075.44     1.627763 0.0065265113    61.774812    7936.9103 
 3210000   -203953.13    1.6593815 0.00039192115    61.802003    7950.3246 
 3215000   -204108.33    1.6744711 -0.0024008269    61.801895    7963.7116 
 3220000   -203851.84    1.6712067 -0.0046445632    61.922792    7977.1461 
 3225000   -204076.99    1.6334013 -0.0042579235    61.854008    7990.5226 
 3230000   -204024.97    1.6279469 0.0018805989    61.768794    8003.9391 
 3235000    -204012.6    1.6688838 -0.009777928    61.863291     8017.373 
 3240000   -204142.59    1.6950624 -0.0015812556    61.732034     8030.824 
 3245000   -204308.02    1.6692423 0.0020613105    61.659729    8044.2751 
 3250000   -204208.06    1.6632883 -0.0032219581    61.736942     8057.705 
 3255000   -204167.44    1.6532574 -0.0058010476    61.872364     8071.078 
 3260000   -204158.85    1.6356762 0.0031761565     61.77928    8084.5183 
 3265000   -204118.96     1.666769 0.0011295104    61.786448    8097.9118 
 3270000   -204057.31    1.7128554 0.0010369131    61.799602    8111.3079 
 3275000   -204105.68    1.6460439 -6.8665215e-05    61.777624    8124.7238 
 3280000    -203970.6    1.6777498 -0.0031938963    61.899899    8138.0894 
 3285000   -203988.48    1.6530865 -0.00079938126    61.857741     8151.483 
 3290000   -204051.32    1.6925621 0.0019295904    61.762041    8164.8782 
 3295000   -204199.67    1.6248056 -0.00087488184    61.727499    8178.3062 
 3300000   -204358.39    1.6381196 0.00080052444    61.643537    8191.7576 
 3305000   -204443.35    1.7074562 0.0019974774    61.622888    8205.2108 
 3310000   -204616.64    1.7036042 0.0063288886    61.541577    8218.6717 
 3315000   -204420.19    1.6184364 -0.0042204655    61.667533    8232.1305 
 3320000   -204479.68    1.6424007 0.00053493842    61.618119    8245.6092 
 3325000   -204578.88    1.6888615 -0.0019189868    61.586953    8259.0535 
 3330000   -204394.12    1.6250803 -0.0020389992    61.705753    8272.5272 
 3335000   -204507.26    1.6616872 -0.0027455127    61.623588    8285.9944 
 3340000   -204515.03    1.6580679 0.0026528302    61.663678    8299.4476 
 3345000   -204487.67    1.6932924 -0.0047540173    61.771311     8312.911 
 3350000   -204617.16    1.6658186 -1.8395029e-06    61.711705    8326.3379 
 3355000   -204404.99    1.6198449 0.00049613614    61.650788    8339.8303 
 3360000   -204390.49    1.6952149 -0.0020457563    61.695736     8353.258 
 3365000   -204330.46    1.6349545 0.0019476779    61.684653    8366.6847 
 3370000   -204562.94    1.6525707  0.003341506    61.627372    8380.1409 
 3375000   -204407.66     1.691496 0.0013131262     61.65367    8393.5972 
 3380000    -204505.3    1.6973208 0.0027401565    61.574166    8407.0937 
 3385000   -204369.58    1.6905574 0.0012368295    61.644876    8420.5204 
 3390000   -204273.97    1.6739092 -0.006084466     61.80948    8433.9578 
 3395000    -204201.5     1.695571 0.0059643451    61.677307     8447.418 
 3400000   -204374.12    1.6508278 0.0011010855    61.699084    8460.8581 
 3405000   -204216.63    1.6619608 -0.0014014737    61.777948    8474.3038 
 3410000    -204375.8    1.6645183 -0.00066780436    61.695335    8487.7608 
 3415000   -204483.05    1.6586032 0.0070476434    61.574691    8501.2472 
 3420000   -204452.07    1.6206263 0.0010296412    61.652502    8514.7298 
 3425000   -204222.05    1.7106892 -0.0019088924    61.740253    8528.1943 
 3430000   -204337.94    1.6169332 0.0031552237    61.703906    8541.6184 
 3435000   -204332.48    1.6772377 0.0037224589    61.677999    8555.0872 
 3440000   -204190.97    1.6429336 -0.0028415119    61.780562    8568.5293 
 3445000   -204319.72    1.6138046 -0.0019771916     61.72513    8581.9543 
 3450000   -204437.45    1.6592612 0.0033001449    61.645129    8595.3763 
 3455000    -204494.9    1.6298564 -0.0018392899    61.686068    8608.7916 
 3460000   -204339.23    1.6710874 0.0032498548    61.724081    8622.2275 
 3465000   -204392.51    1.6769014 0.0030239042    61.698094    8635.6724 
 3470000    -204371.2    1.6149019 0.0010089461    61.736478    8649.1152 
 3475000   -204432.02    1.6701017 -0.0030043749    61.800897     8662.585 
 3480000   -204149.86    1.6112568 0.0068190375    61.759555    8676.0056 
 3485000   -204010.83    1.6638403 -0.0027177345    61.875955     8689.446 
 3490000   -204231.84     1.636852 -0.0008711255    61.802664    8702.8466 
 3495000   -204284.19    1.6870219 -0.0038130983    61.794741    8716.2744 
 3500000   -204146.18    1.7003266 0.00033656737    61.792064    8729.6823 
 3505000   -204251.31    1.6543387 0.0018600607    61.723112    8743.0843 
 3510000   -204306.17    1.6318613 0.00012439069    61.711113     8756.497 
 3515000   -204448.23    1.6814335 0.00058676291     61.66282    8769.9706 
 3520000   -204615.58    1.6753952 -0.0027241141    61.638038    8783.4359 
 3525000   -204333.89    1.6792116 -0.00072739337    61.739475    8796.8914 
 3530000   -204367.29    1.6541274  0.004142815    61.681809    8810.3297 
 3535000   -204493.56    1.6909953 -0.0009427322    61.700328    8823.7783 
 3540000   -204318.29    1.6257932 -0.0011181875    61.754732    8837.2161 
 3545000   -204585.09    1.6824936 -0.0028921282    61.706721    8850.6504 
 3550000   -204300.32    1.6573386 -0.0020817757    61.728094    8864.0665 
 3555000   -204285.31    1.6570879 -0.0023587575    61.773042    8877.5056 
 3560000   -204247.55    1.7031715 0.00048132071    61.778476    8890.9098 
 3565000   -204381.25    1.6377056 0.00099016554     61.70313    8904.3354 
 3570000   -204673.26    1.6428767  0.007860631    61.500394    8917.8384 
 3575000   -204426.74    1.6652034 -0.002330176    61.726404    8931.3096 
 3580000   -204645.65    1.6792904 -0.0015086207    61.665363    8944.7431 
 3585000    -204354.9    1.6618538 -0.0018342241     61.73418    8958.1703 
 3590000   -204411.08    1.6815623 0.0048123478    61.669211    8971.6387 
 3595000   -204384.27    1.6397996 0.0071152866    61.581166    8985.1062 
 3600000   -204355.19    1.6800761 0.00093713921    61.697302    8998.5322 
 3605000    -204359.3    1.6829631 -0.0060525219    61.763391    9011.9579 
 3610000   -204462.11    1.6449642 -0.0037590593    61.707015    9025.3968 
 3615000   -204177.63    1.6036596 -0.0025173751     61.75605    9038.8179 
 3620000    -204126.6    1.6668345  0.001719844     61.78365    9052.2336 
 3625000   -204162.96    1.6505876 -0.0035324703    61.768048    9065.6943 
 3630000   -204376.73    1.6368651 -0.0011892222    61.661046    9079.1761 
 3635000   -204149.67    1.6778555 -0.00028058708    61.733868     9092.624 
 3640000   -204260.47    1.6559116 -0.0020447554     61.71996    9106.0501 
 3645000   -204021.31    1.6310059 0.0021454787    61.774458    9119.5204 
 3650000   -204115.47    1.6378938 -0.005401915    61.887727    9132.9793 
 3655000   -204045.81     1.635411 0.0027695462    61.751989     9146.389 
 3660000   -204236.27     1.712625 -0.0012520061    61.742069    9159.7803 
 3665000   -204117.67    1.6426564 0.0022047622    61.737554    9173.2331 
 3670000    -204200.7    1.6336111 -0.00092726946    61.712983    9186.6599 
 3675000   -204198.97    1.6404025 -0.0017351042    61.769304    9200.1031 
 3680000   -204078.57    1.6308121 0.00066683002    61.739726    9213.5262 
 3685000   -204071.04    1.6239034 0.0018285137    61.746502    9226.9706 
 3690000   -204102.77    1.6664438  0.003170039    61.706886    9240.4054 
 3695000   -204188.94    1.6195313 0.00045031403    61.657413    9253.8302 
 3700000   -204243.49    1.6986421 -0.0006581323    61.697634    9267.2596 
 3705000   -204281.36    1.6362829 -0.0022821994    61.767318    9280.7122 
 3710000   -204546.95    1.6610529 -0.0033149083    61.702137    9294.1262 
 3715000   -204512.93     1.701885 0.0034645871    61.605052     9307.602 
 3720000   -204120.93    1.6444186 -0.00051457249    61.809799    9321.0325 
 3725000   -204129.03    1.6687088 -0.0034337438     61.84728    9334.4668 
 3730000   -204077.07    1.6563244 0.0012294017    61.743587    9347.8947 
 3735000   -204206.66    1.6638485 -0.0032838923    61.801874    9361.2831 
 3740000   -204045.18    1.6762886 -0.0051936512     61.84548    9374.7622 
 3745000    -204169.7    1.6761118 -0.001742139    61.743179    9388.2211 
 3750000   -204172.76    1.6408935 -0.0019684384    61.743665    9401.6519 
 3755000   -204244.04    1.6421539 -0.0021418632     61.73874    9415.0858 
 3760000    -204351.2    1.6762331 0.0044158332    61.660842    9428.5331 
 3765000   -204358.09    1.6475407 0.00015884832    61.643295    9441.9697 
 3770000   -204286.59    1.6975664 0.0033653194    61.590067    9455.3993 
 3775000   -204296.26    1.6815589 -0.00063592808    61.702673    9468.8641 
 3780000   -204244.09    1.6490699 -0.00046343586    61.738115    9482.2781 
 3785000   -204485.08    1.6922575 0.0048896689    61.609913    9495.7347 
 3790000   -204482.36    1.6902206 -0.0057315145    61.739437    9509.1785 
 3795000   -204231.13    1.6230958 -0.0097923962     61.83667    9522.6227 
 3800000   -204525.45    1.6775557 0.0021147111    61.611493    9536.0753 
 3805000   -204411.29    1.7045535 0.0074466883    61.582154     9549.524 
 3810000   -204409.98    1.6606066 0.0014670493    61.682281    9562.9467 
 3815000    -204318.4    1.6875609 0.0049443622    61.676772    9576.3671 
 3820000   -204416.91    1.6477124 0.0062318331    61.634258     9589.803 
 3825000   -204308.04    1.6742966 0.00010172222    61.742416    9603.2369 
 3830000   -204508.92     1.633186 -0.0025739622    61.714433    9616.6419 
 3835000   -204173.33    1.6560379 0.00091591927    61.794677    9630.0623 
 3840000   -204195.98    1.6340418 -0.0036509092    61.796438    9643.4896 
 3845000   -204124.48     1.666573 0.0062602613    61.727829    9656.9284 
 3850000   -204256.94    1.6180037 -0.00072686148    61.722932    9670.3858 
 3855000   -204247.84    1.7025297 -0.0027970405    61.790211    9683.8246 
 3860000   -204325.75    1.6775766 0.0032994355    61.695664    9697.2266 
 3865000   -204233.38    1.6583059 0.0035953333    61.698546    9710.6267 
 3870000   -204219.91    1.6404255 0.0030085581    61.703653    9724.0221 
 3875000    -204112.7    1.6228522 -0.0021616838    61.833608    9737.4177 
 3880000   -203969.72    1.7067292 -0.001309824    61.868801    9750.8094 
 3885000    -204243.3    1.6536038 -0.0012503577    61.830717    9764.1995 
 3890000   -204116.08    1.6709585 -0.0046945442    61.877494    9777.5657 
 3895000   -204264.73    1.6850097 -0.003394424    61.750057    9790.9849 
 3900000   -204224.81    1.6305714 -0.0014737086     61.76709    9804.4058 
 3905000   -203958.84    1.6659907 -0.0039827571    61.872056    9817.8629 
 3910000   -204246.08    1.6652347 -0.0010023206    61.729689    9831.2901 
 3915000   -204301.34    1.6388004 0.00074041309    61.727561    9844.7208 
 3920000   -204104.27    1.6359609 0.0021277547    61.800084    9858.1095 
 3925000   -204113.53    1.6713225 -0.0040075571    61.916556    9871.4763 
 3930000   -203993.31     1.647279 0.00067159875    61.817657    9884.8652 
 3935000   -204161.38    1.6966133 0.0029972204    61.690418    9898.2902 
 3940000   -204260.58    1.6687531 -0.0043042979    61.804779    9911.7298 
 3945000   -204281.84    1.6741203 -0.00069564543    61.819171    9925.1753 
 3950000   -204110.49     1.711592 0.0015992867    61.775886    9938.5909 
 3955000   -203908.39    1.6491563 0.0030935269    61.795418    9952.0528 
 3960000   -204013.66    1.6357513 -0.0030871426    61.879714    9965.4729 
 3965000   -204162.98    1.6087932 0.0059102004    61.709625    9978.8888 
 3970000   -203989.53    1.6700319 0.0026630528    61.820264    9992.2862 
 3975000   -204067.17    1.6555985 -0.0010244927      61.8218    10005.676 
 3980000      -204176    1.6932228 0.0066289203    61.720103     10019.11 
 3985000    -204183.6    1.7016634 0.0031236954    61.784118    10032.524 
 3990000   -204144.26    1.6157551 0.00075288774    61.779562    10045.966 
 3995000   -204075.69    1.6501228 0.0012110011    61.790496    10059.378 
 4000000   -204134.21    1.7059326  0.005504193    61.715519    10072.781 
 4005000   -204202.07    1.6225059 0.0009078925     61.73129    10086.206 
 4010000   -204251.58     1.684791 0.0010033127    61.737089    10099.618 
 4015000   -204266.01    1.6649295 -0.0028976647    61.759204     10113.07 
 4020000   -204265.86    1.5958824 -0.0082181895    61.885258    10126.513 
 4025000   -204176.04    1.7013791 -0.0013370012    61.775563    10139.938 
 4030000   -204389.47    1.6871172 0.0033927128    61.635579    10153.402 
 4035000   -204293.82    1.6586295 0.0012003365    61.757866    10166.853 
 4040000   -204110.25    1.6635391 -0.0023569254    61.856045    10180.258 
 4045000   -204068.93    1.6775591 0.0010896316    61.760827    10193.662 
 4050000   -204254.48    1.7202993 0.0038925871    61.726392     10207.08 
 4055000   -204272.59    1.6341895 -0.0033072957    61.753851    10220.505 
 4060000   -204139.72     1.625073 -0.00019541313    61.784877    10233.919 
 4065000   -204268.65    1.6411378   0.00256571    61.744378    10247.312 
 4070000   -204184.33    1.6416076  -0.00259356    61.826977    10260.679 
 4075000   -204065.32    1.6492619 -0.0005812998    61.825396    10274.112 
[...]
 9085000   -204147.85     1.643696 -0.0051870996    61.840815    23737.092 
 9090000   -204209.77     1.634957 -0.00028738058    61.743425    23750.561 
 9095000   -204234.83    1.6276268 0.00042041668    61.729181    23763.994 
 9100000   -204025.74    1.6761911 -0.0017521909     61.83841    23777.426 
 9105000   -203984.95    1.6737083 -0.00061943788     61.81364    23790.784 
 9110000   -203903.23    1.6588682 -0.0011020957    61.858529    23804.206 
 9115000   -203876.48    1.7095148 -0.0012958306    61.860915    23817.635 
 9120000   -203955.44    1.6219666 -0.00089910367    61.837328    23831.041 
 9125000   -203999.02    1.6861442 -0.0016952743     61.82886    23844.464 
 9130000   -204201.03    1.6720149 0.0026978584    61.674341    23857.909 
 9135000   -204098.53    1.6796594 -0.0023934655    61.802604     23871.29 
 9140000   -204210.63    1.6726378 -8.2933371e-05    61.677368    23884.738 
 9145000   -204154.01    1.7317079 -0.0052286344    61.773328    23898.213 
 9150000   -203896.03    1.6685164 -0.0030817492    61.850938     23911.63 
 9155000   -203865.07     1.654856  -0.00294754    61.878103    23925.056 
 9160000   -203947.59    1.6558764 -0.0013578167    61.853446    23938.443 
 9165000   -203948.13    1.6604663 0.0022815377    61.768548    23951.846 
 9170000   -204123.99     1.683782 -0.0094381774    61.925976    23965.267 
 9175000   -203960.05    1.6333573 -0.0043631041     61.88296    23978.693 
 9180000   -204090.58    1.6942638 -0.0051925245    61.832119     23992.11 
 9185000   -204100.99    1.6506854 0.0015253691    61.723016    24005.522 
 9190000   -204075.23    1.6154781 -0.00044116096    61.780381    24018.942 
 9195000   -204365.72    1.6306021 -0.0011137339    61.710496    24032.331 
 9200000    -204353.1    1.6341775 0.0011115128    61.626343    24045.776 
 9205000   -204305.24    1.6645971 0.0014620888    61.687706    24059.206 
 9210000   -204051.59    1.6770437 0.0034210863    61.688766    24072.641 
 9215000   -204151.73    1.6866589 -0.0055187185    61.787562    24086.071 
 9220000   -204221.41    1.6880799 9.5886592e-05    61.717912    24099.535 
 9225000   -204297.05    1.6390496 -0.0041598752    61.760339    24112.966 
 9230000   -204294.41      1.61994 0.0045069769    61.681267    24126.418 
 9235000   -204415.87    1.6167294 0.0028392103    61.638945    24139.866 
 9240000   -204220.56    1.6406816 0.0016257228     61.73223    24153.286 
 9245000   -204074.85    1.6038899 0.0022908584    61.804948    24166.644 
 9250000   -204137.92    1.6614916 0.0018322851    61.813415     24180.03 
 9255000   -204213.12    1.6448287 0.0025105339    61.757364    24193.439 
 9260000    -204175.9    1.6827951 -0.0016697392     61.72512      24206.8 
 9265000   -204209.84    1.7034113 -0.0029911296    61.829451      24220.2 
 9270000   -203969.77    1.6708054 0.00031629318    61.822189    24233.616 
 9275000   -204179.92    1.6918956 -0.00061935018     61.81658    24247.032 
 9280000   -204229.38    1.6696471 -0.0020377867    61.800485    24260.443 
 9285000   -203978.39    1.6531962 0.0027608717    61.813887    24273.832 
 9290000   -204076.27    1.7044824 -0.00053103284    61.843564    24287.242 
 9295000   -203958.76    1.6650129 -0.0020360526    61.886163    24300.594 
 9300000   -204247.13    1.6829216 0.0010012122    61.739744    24313.988 
 9305000   -204100.19    1.6162607 -0.0026097158    61.871228      24327.4 
 9310000   -204103.79    1.6221237 0.0027191857    61.769108    24340.794 
 9315000   -204381.88    1.6695428 -0.00032072017    61.751721    24354.215 
 9320000   -204422.58    1.6579456 -0.0043096746    61.719447    24367.635 
 9325000   -204448.99      1.65938 0.0034968483    61.685315     24381.05 
 9330000   -204268.16     1.673089 -0.0028077662    61.809258    24394.472 
 9335000   -204289.31    1.6645348 -0.0012334003    61.757595    24407.889 
 9340000   -204209.82     1.695062 0.0019134843    61.814155    24421.299 
 9345000    -204172.6    1.6594906 0.0063172363    61.697467    24434.684 
 9350000   -204233.93    1.6711145   0.00131151    61.733781    24448.119 
 9355000   -204407.08    1.6921677 0.0029124908    61.736342    24461.534 
 9360000    -204338.6    1.7078483 0.0033702754    61.737155    24474.964 
 9365000   -204124.53    1.6800359 -0.0043440201    61.850795    24488.337 
 9370000    -204151.6    1.6177892 0.0011209086    61.794339    24501.728 
 9375000   -204339.18    1.6415137 -0.0022401562    61.732333    24515.146 
 9380000   -204145.71    1.6633392 -0.0068193024    61.851036    24528.583 
 9385000   -204058.91    1.6400662 -0.0021506867    61.847526    24541.964 
 9390000   -204080.41    1.6519338  0.001331266    61.805144    24555.373 
 9395000    -204059.7    1.6922904 0.0025700583    61.818422    24568.776 
 9400000   -204167.48    1.6694457 0.0039131156    61.748662    24582.193 
 9405000   -204270.01    1.6896759 0.0024827025    61.764679    24595.622 
 9410000   -204157.64    1.7004458 0.0033816653    61.707785    24609.042 
 9415000   -204043.94     1.616867 -0.003360321    61.828847    24622.481 
 9420000   -204257.84    1.6567916 -0.0019506368    61.704398    24635.928 
 9425000   -204425.35    1.6547761 0.0010849594    61.642142    24649.399 
 9430000   -204422.23    1.6112264 -0.0012187154    61.662865    24662.868 
 9435000   -204347.17    1.6216427 9.3622746e-05    61.695818     24676.31 
 9440000   -204360.74    1.6584254 -0.0033786987    61.750324    24689.734 
 9445000   -204166.29    1.6256189 -0.0048585992    61.845787    24703.184 
 9450000   -204289.05    1.6829931 0.0094280062    61.634206    24716.626 
 9455000   -204189.71    1.5827163 -0.0058415573    61.753657     24730.06 
 9460000   -204235.44    1.6435614 -0.0014399613    61.716494    24743.523 
 9465000   -204510.03    1.6773242 0.0054572475    61.535729    24757.015 
 9470000    -204230.1    1.6921022 -0.0042040234    61.764825    24770.541 
 9475000   -204278.08     1.675737 0.00081386325     61.67745    24784.016 
 9480000   -204291.29    1.6635268 0.0010306287    61.663269    24797.478 
 9485000   -204190.71    1.6348936 -0.0044231897    61.810226    24810.922 
 9490000   -204066.22    1.6811053 0.00067381197    61.745359    24824.392 
 9495000   -204055.25     1.639216 -0.0033167635      61.8411    24837.847 
 9500000   -204194.46       1.6045 0.0035028574    61.698244    24851.299 
 9505000   -204183.48    1.7221765 0.0013147851    61.772294    24864.708 
 9510000   -204184.23    1.6440812 -0.0010275672    61.799636    24878.157 
 9515000   -204215.26    1.6543141 -0.0024814741    61.741709    24891.585 
 9520000   -204309.89    1.6622873 -0.0015183335    61.710835    24905.015 
 9525000   -204387.19    1.6563692 -0.0054468202    61.796232    24918.444 
 9530000   -204380.69    1.6347835 -0.0060015635    61.811604    24931.877 
 9535000   -204450.51    1.6858058 -0.0068983056    61.759486     24945.32 
 9540000   -204492.09    1.6527685 -0.0022742234    61.688674    24958.785 
 9545000   -204478.74    1.6484708 0.0027022137    61.623516    24972.232 
 9550000   -204309.53    1.6119049 -0.0054638066    61.747938    24985.672 
 9555000    -204555.7    1.6287552 -0.0031614475    61.644045    24999.125 
 9560000   -204427.85    1.6415927 0.0021298257    61.645531    25012.604 
 9565000   -204507.11    1.6807819  0.004322903    61.619589    25026.086 
 9570000   -204305.01    1.6377111 -0.0036698376    61.727746    25039.511 
 9575000   -204335.67    1.6720836 5.3778298e-05    61.719674    25052.959 
 9580000   -204331.61     1.684431 0.0025131059    61.660973    25066.426 
 9585000   -204248.92    1.6053795 -0.0011613019    61.764585    25079.821 
 9590000   -204205.83    1.6980193 -0.0061341979    61.803469    25093.266 
 9595000   -204107.64    1.6067028 -0.0011114285    61.759665    25106.689 
 9600000   -204323.54    1.6312203 -0.00039032026    61.742903    25120.105 
 9605000   -204093.66    1.6998732 -0.00070359976    61.771929    25133.554 
 9610000   -204222.51    1.7092126 0.0063769462    61.641555    25147.034 
 9615000   -204117.09    1.6185188 0.0022020203    61.753394    25160.446 
 9620000   -204314.43    1.6738204 0.0018823464    61.668015    25173.876 
 9625000   -204164.11    1.6484493  0.003378411    61.720678    25187.323 
 9630000   -204439.93    1.6516857 -4.6199421e-05    61.778137    25200.743 
 9635000   -204504.06    1.6672559 0.0064530903    61.616618    25214.162 
 9640000   -204510.53    1.6617448 -0.00085194881     61.67136    25227.614 
 9645000   -204175.94    1.6145046 -0.0047474912    61.820053    25241.069 
 9650000   -204290.43    1.6255827 -0.0030513795    61.783319    25254.554 
 9655000   -204383.91    1.6614035 0.0022984959    61.627756    25267.996 
 9660000   -204578.52    1.6421669 -0.0045462583    61.643292    25281.478 
 9665000   -204434.33    1.6790253 -0.0069107097    61.706347    25294.911 
 9670000   -204396.22    1.7470882 -0.00020990817    61.654214     25308.34 
 9675000    -204327.7    1.6525624 0.0022945013     61.70157    25321.796 
 9680000   -204498.55     1.719766 -0.0016311162    61.607428    25335.211 
 9685000   -204174.53    1.6399627 0.0032007658    61.621642    25348.657 
 9690000    -204283.5    1.6843025 0.0017176218    61.715331    25362.075 
 9695000   -204423.58    1.6508216 0.0029337341    61.666891    25375.512 
 9700000   -204422.22    1.6359179 0.0015792668    61.645629    25388.961 
 9705000   -204221.11    1.6530766 -0.0039064181    61.816334    25402.385 
 9710000   -204335.13    1.7055301 -0.0024550501    61.760131    25415.771 
 9715000   -204234.86    1.6414852 -0.0049836916    61.817763    25429.167 
 9720000   -204287.63    1.6572444 -0.0018188802    61.784897    25442.589 
 9725000   -204168.32    1.6825663 0.0039408995    61.745858    25455.985 
 9730000   -204080.66    1.6555634 0.00015274013     61.77134    25469.418 
 9735000   -204217.72    1.6453263 -0.00053756039    61.714929    25482.839 
 9740000   -204160.76    1.6955079 0.0026140265    61.797878     25496.28 
 9745000   -203987.27    1.6451658 -0.00050621712    61.874898      25509.7 
 9750000   -204126.76    1.6929984 -0.0052409032    61.879231    25523.146 
 9755000   -203998.02    1.6342675 0.0019588128    61.854546    25536.592 
 9760000   -203970.54    1.7015425 0.0043342682    61.857692    25549.965 
 9765000   -204023.18    1.6375213 -0.00021336579    61.907487     25563.33 
 9770000   -204104.41    1.6751917 0.0059769403    61.739319    25576.724 
 9775000   -204256.62    1.6501718 -0.0021692901    61.829018    25590.113 
 9780000   -203891.43    1.6934201  -0.00344129    61.934071    25603.534 
 9785000    -203861.1    1.6386448 -0.0037722288    61.898338     25616.94 
 9790000   -204239.85    1.6915571 -0.0059577196    61.821395    25630.397 
 9795000   -204208.47    1.7248599 -0.00028103369    61.797206    25643.835 
 9800000   -203774.75    1.6317257 0.0031168385    61.860531    25657.247 
 9805000   -203996.85    1.6380602 -4.4604951e-05    61.864488    25670.656 
 9810000   -203803.43    1.7049665 -0.002842947    61.952241    25684.113 
 9815000   -203757.65    1.6875631 -0.0024931709    61.937712    25697.501 
 9820000   -204118.34    1.6699561 -0.0030460103    61.852603    25710.952 
 9825000   -204077.62    1.6690437 0.00048077114     61.88206    25724.333 
 9830000   -204113.79     1.641564 -0.0011254227    61.812264    25737.767 
 9835000   -204168.25    1.6737471 0.0046034758    61.794466    25751.194 
 9840000   -203819.38    1.6706153 -0.0018874451    61.981971    25764.556 
 9845000   -204054.44    1.6295942 0.0042179621    61.885116    25777.939 
 9850000   -203757.39    1.6620167 0.0063606467    61.864117    25791.335 
 9855000   -203956.71    1.6945394 -0.0033052492    61.922114    25804.767 
 9860000   -204020.83    1.6756718 -0.0024513489    61.906245    25818.194 
 9865000   -203920.34    1.6216078 -0.0010614249    61.846468    25831.569 
 9870000   -204137.59    1.6255489 0.0027002533    61.729151    25845.015 
 9875000   -204185.91    1.6409348 0.0012677648    61.709647    25858.433 
 9880000   -204230.37    1.6719975 0.0012216056    61.758156    25871.878 
 9885000   -204224.23    1.6441925 -0.0012004146    61.760528    25885.281 
 9890000   -204375.76    1.6312318 -0.0019484747    61.744068    25898.732 
 9895000   -204300.93    1.6838842 0.0065252758     61.69956    25912.128 
 9900000   -204331.05    1.6287711 6.935133e-07    61.709953     25925.55 
 9905000   -204346.07     1.658809 -0.0046030589    61.759358    25938.972 
 9910000    -204187.9    1.6818255 -0.0016441933    61.817145    25952.416 
 9915000   -204253.25    1.6364077 0.0080408626    61.620069    25965.837 
 9920000   -204164.79     1.629313 -0.0061305023    61.835374    25979.247 
 9925000   -204078.51    1.6917209 0.0016373914    61.789184    25992.703 
 9930000   -204182.66    1.6443739 -0.00010590405    61.796762    26006.098 
 9935000   -204102.75    1.6472742 0.0090731404    61.569659    26019.567 
 9940000   -204269.38    1.6616447 -0.0046278926    61.778767    26033.013 
 9945000   -204157.27    1.6918266 0.0018109415    61.748931    26046.391 
 9950000   -204172.66    1.6306237 -0.0021711673     61.81658    26059.785 
 9955000   -204366.84    1.6807936 0.0029218137    61.649185    26073.165 
 9960000   -204422.24    1.6950711 -0.0082507326    61.787243    26086.601 
 9965000      -204452    1.6139049 -0.0015321677    61.670909    26100.044 
 9970000   -204318.93    1.6056115 -0.0030930179    61.705036    26113.522 
 9975000   -204272.68    1.6424557 0.0031950245    61.710542    26126.936 
 9980000   -204488.14    1.6873817  0.001079742    61.651274    26140.405 
 9985000   -204367.28    1.6555135 -0.0048850092    61.694086    26153.853 
 9990000   -204157.62    1.6850218 -0.0035689831    61.789255    26167.286 
 9995000   -204380.84    1.6740178 0.0015808846    61.680763    26180.767 
10000000   -204340.61    1.6515657 -0.00083363426    61.691028     26194.18 
10005000   -204384.72    1.6469502 0.0084880278    61.623089    26207.612 
10010000   -204389.12    1.6498858 -0.0014064306    61.732894    26221.036 
10015000   -204321.32    1.6521704 -0.0011683233    61.754534    26234.502 
10020000   -204261.09    1.6939997 -0.004476995    61.839532    26247.938 
10025000   -204076.28     1.683578 0.00068004685    61.862165    26261.346 
10030000   -204197.06    1.6670476 -0.0030728226    61.893097    26274.736 
10035000   -204295.22    1.6503303 -0.0026944697    61.770207    26288.183 
10040000   -204393.11    1.6369724 0.0026269049    61.657824    26301.651 
10045000   -204233.62    1.6363247 -0.00012629976     61.81805    26315.049 
10050000   -204291.64     1.595759 0.0025680489    61.723046    26328.465 
10055000    -204286.6    1.6349094 -0.0031141008    61.788824    26341.906 
10060000   -204281.68     1.648495 -0.0015191329    61.766854     26355.33 
10065000   -204376.09    1.6823928 -0.0059634595    61.832747    26368.798 
10070000   -204272.65     1.629885 -0.00085735955    61.750839    26382.209 
10075000   -204357.58    1.6552859 0.0039681543    61.673028    26395.634 
10080000   -204318.71    1.6403608 -0.0031093938    61.725459     26409.08 
10085000   -204442.66    1.6627163 -0.0027949777    61.664001    26422.559 
10090000   -204348.42    1.6468479 -0.0019149179    61.719274    26436.013 
10095000   -204177.16    1.6362977 0.0047463252    61.650636    26449.512 
10100000   -204221.21    1.6445618 0.0052791975    61.640257    26462.924 
10105000   -204278.94    1.6404664  0.010245333    61.603582    26476.355 
10110000   -204436.76    1.6645751 0.00063189758     61.63252    26489.799 
10115000   -204119.92    1.6383826 0.00019539598    61.738985    26503.221 
10120000   -204285.67    1.6557205 -0.0023946685    61.719732    26516.667 
10125000   -204263.52    1.6595447 0.0060963221    61.609536    26530.116 
10130000      -204365    1.5969014 0.0060736222    61.614746    26543.581 
10135000   -204474.57    1.6819019 -0.0018124272    61.744454     26557.02 
10140000   -204463.14    1.6344782 0.0056870672    61.621006    26570.488 
10145000   -204396.61    1.6469403 0.00029833948    61.659791    26583.973 
10150000    -204419.2    1.6268968 -0.0015458347    61.729063    26597.414 
10155000   -204479.83     1.664482 -0.0026916603    61.654715    26610.853 
10160000   -204457.35    1.6647275 -0.0017056122    61.732375    26624.327 
10165000   -204443.02    1.6280942 -0.00012018897    61.677322    26637.775 
10170000   -204319.76    1.6423979 -0.00028865174    61.726169    26651.258 
10175000   -204437.76    1.6776598 0.0021129913    61.627566    26664.694 
10180000   -204460.68    1.6546762 -0.00022960624    61.701611    26678.124 
10185000   -204605.17    1.6949379 0.0019336332    61.590932    26691.583 
10190000   -204604.96    1.6451965 -0.0032864369    61.659641    26705.048 
10195000   -204137.11    1.6830898 -0.0028662349    61.782596    26718.501 
10200000   -204290.35    1.6784947 -0.00079673105    61.727776    26731.957 
10205000   -204278.62    1.6831188 -0.0032344021    61.718091    26745.407 
10210000   -204456.38    1.6837802 0.0035452091    61.575262    26758.872 
10215000   -204344.65     1.663073 0.0064019757     61.57253    26772.326 
10220000   -204433.06    1.6414615 0.0007064996    61.599608      26785.8 
10225000   -204369.77    1.6637321 -0.0053262262    61.673925    26799.296 
10230000   -204033.24    1.6789262 -0.0046603384    61.805507    26812.826 
10235000   -204044.78    1.6682294 -0.0014998415    61.836986    26826.277 
10240000   -204064.51    1.6431782 0.0036900082    61.787482    26839.653 
10245000   -204006.19    1.6541177 0.00011282139    61.874544    26853.055 
10250000   -203775.72    1.6667702 0.0037452682    61.860488    26866.465 
Loop time of 26866.5 on 8 procs for 10000000 steps with 2304 atoms

Performance: 32159.050 tau/day, 372.211 timesteps/s
94.6% CPU use with 8 MPI tasks x 1 OpenMP threads

MPI task timing breakdown:
Section |  min time  |  avg time  |  max time  |%varavg| %total
---------------------------------------------------------------
Pair    | 4872.3     | 5372.3     | 5677.8     | 346.9 | 20.00
Bond    | 0.86396    | 1.0703     | 1.4135     |  17.7 |  0.00
Kspace  | 10859      | 10981      | 11116      | 103.6 | 40.87
Neigh   | 658.87     | 667.79     | 691.07     |  44.9 |  2.49
Comm    | 1153.3     | 1169.6     | 1183.7     |  27.1 |  4.35
Output  | 0.85106    | 0.88059    | 1.0841     |   8.2 |  0.00
Modify  | 6187.9     | 7899.7     | 8612.6     | 911.4 | 29.40
Other   |            | 773.9      |            |       |  2.88

Nlocal:        288.000 ave         292 max         280 min
Histogram: 1 0 0 0 1 1 0 2 0 3
Nghost:        6865.62 ave        6929 max        6794 min
Histogram: 1 1 0 0 2 1 0 1 1 1
Neighs:         0.00000 ave           0 max           0 min
Histogram: 8 0 0 0 0 0 0 0 0 0
FullNghs:      285870.0 ave      290023 max      278304 min
Histogram: 1 0 0 1 0 1 1 1 0 3

Total # of neighbors = 2286960
Ave neighs/atom = 992.60417
Ave special neighs/atom = 0.0000000
Neighbor list builds = 75364
Dangerous builds = 0

## ----- deletion for small NPs and salt ----- ##
#    reset_timestep 0

#    label checking

#    compute     peatom    all   pe/atom
#    variable    exppe    atom    exp(2*c_peatom/${ttemp})
#    compute     aveS    small   reduce ave v_exppe
#    compute     aveCl   anion   reduce ave v_exppe
#    compute     aveNa   cation  reduce ave v_exppe

#    fix AVE all ave/time 5 ${repeat} ${freq} c_aveS c_aveCl file average.dat
#    thermo 10000
#    thermo_style custom step pe c_press lx cpu
#    thermo_modify norm no flush yes
#    fix AVE all ave/time 1 ${repeat} ${freq} c_aveS c_aveCl c_aveNa
#    variable    chempNP equal ${ttemp}*(ln(v_numS/vol)+ln(v_numCl/vol)*25+ln(f_AVE[1])+ln(f_AVE[2])*25)
#    variable    chempS  equal ${ttemp}*(ln(v_numNa/vol)+ln(v_numCl/vol)+ln(f_AVE[2])+ln(f_AVE[3]))
#    timestep 0.0005
#    run ${freq}

#    print "done! ChempNP= ${chempNP}" append potential.dat
Total wall time: 7:48:33
