LAMMPS (27 Oct 2021)
OMP_NUM_THREADS environment is not set. Defaulting to 1 thread. (src/comm.cpp:98)
  using 1 OpenMP thread(s) per MPI task
package gpu 0
package gpu 2 neigh no pair/only on
#Lammps gcmc code for electrolytes

## ----- Simulation times ----- ##
    variable t_nve      equal 50000             #nve/limit
    variable t_deform 	equal 50000            #nvt
    variable t_pressed 	equal 50000            #nvt
    variable t_relaxed 	equal 100000            #nvt
    variable t_eq 	equal 10000000           #nvt

    variable smallc	equal 10
    variable bigc	equal -80
    variable numB	equal 256
    variable numS	equal ${numB}*8
    variable numS	equal 256*8
#    variable numCl	equal ${numS}*${smallc}+${bigc}*${numB}

## ----- Environment setting ----- ##
    boundary p p p
    atom_style full

## ----- System Variables  ----- ##
    variable    ttemp       equal   $b          	#reduced temperature
    variable    ttemp       equal   1.8          	
    variable    ppress      equal   0			#osmetic pressure
    variable    cutoff_pppm equal   27.8	        #cutoff for the real part of pppm
    variable	ipress      equal   0.1

    variable    bigd        equal   10                      #LJ sigmas
    variable    smalld      equal   2
#    variable    Cl_d        equal   0.4
    variable    d_bs        equal   0.5*(${bigd}+${smalld})
    variable    d_bs        equal   0.5*(10+${smalld})
    variable    d_bs        equal   0.5*(10+2)
#    variable    d_sNa       equal   0.5*(v_smalld+v_Na_d)
#    variable    d_sCl       equal   0.5*(v_smalld+v_Cl_d)
#    variable    d_bNa       equal   0.5*(v_bigd+v_Na_d)
#    variable    d_bCl       equal   0.5*(v_bigd+v_Cl_d)
#    variable    d_NaCl      equal   0.5*(v_Na_d+v_Cl_d)

    variable    cut_small   equal   ${smalld}*1.122462	    #cutoffs for LJ
    variable    cut_small   equal   2*1.122462	    
    variable    cut_big     equal   ${bigd}*1.122462
    variable    cut_big     equal   10*1.122462
#    variable    cut_Na_d    equal   ${Na_d}*1.122462
#    variable    cut_Cl_d    equal   ${Cl_d}*1.122462
    variable    cut_bs      equal   ${d_bs}*1.122462
    variable    cut_bs      equal   6*1.122462
#    variable    cut_bNa     equal   ${d_bNa}*1.122462
#    variable    cut_bCl     equal   ${d_bCl}*1.122462
#    variable    cut_sNa     equal   ${d_sNa}*1.122462
#    variable    cut_sCl     equal   ${d_sCl}*1.122462
#    variable    cut_NaCl    equal   ${d_NaCl}*1.122462

## ----- Initialization and grouping ----- ##
    read_data config_fcc8.dat
Reading data file ...
  orthogonal box = (-80.000000 -80.000000 -80.000000) to (80.000000 80.000000 80.000000)
  2 by 2 by 2 MPI processor grid
  reading atoms ...
  2304 atoms
Finding 1-2 1-3 1-4 neighbors ...
  special bond factors lj:    0        0        0       
  special bond factors coul:  0        0        0       
     0 = max # of 1-2 neighbors
     0 = max # of 1-3 neighbors
     0 = max # of 1-4 neighbors
     1 = max # of special neighbors
  special bonds CPU = 0.002 seconds
  read_data CPU = 0.014 seconds

    set type 1 charge   ${bigc}    	#large NPs
    set type 1 charge   -80    	
Setting atom values ...
  256 settings made for charge
    set type 2 charge   ${smallc}       #small NPs
    set type 2 charge   10       
Setting atom values ...
  2048 settings made for charge
#    set type 3 charge   1       #Na+
#    set type 3 charge   -1      #Cl-

    mass    *   0.2
    mass    1   25.0

    group big       type 1
256 atoms in group big
    group small     type 2
2048 atoms in group small
#    group cation    type 3
#    group anion     type 3

## ----- Interaction setting ----- ##
    pair_style lj/cut/coul/long ${cut_big} ${cutoff_pppm} #lj/cut/coul/long/soft 2.0 0.5 5.0 ${cut_small} ${cutoff_pppm}
    pair_style lj/cut/coul/long 11.22462 ${cutoff_pppm} 
    pair_style lj/cut/coul/long 11.22462 27.8 
    #Between regular particles (4*5/2=10)
    pair_coeff  1   1   2.0     ${bigd}     ${cut_big}	        # big-big
    pair_coeff  1   1   2.0     10     ${cut_big}	        
    pair_coeff  1   1   2.0     10     11.22462	        
    pair_coeff  2   2   2.0     ${smalld}   ${cut_small}	    # small-small
    pair_coeff  2   2   2.0     2   ${cut_small}	    
    pair_coeff  2   2   2.0     2   2.244924	    
#    pair_coeff  3   3   2.0     ${Na_d}     ${cut_Na_d}		    # Na-Na
#    pair_coeff  3   3   2.0     ${Cl_d}     ${cut_Cl_d}       	# Cl-Cl
    pair_coeff  1   2   2.0     ${d_bs}     ${cut_bs}	        # big-small
    pair_coeff  1   2   2.0     6     ${cut_bs}	        
    pair_coeff  1   2   2.0     6     6.734772	        
#    pair_coeff  1   3   2.0     ${d_bNa}    ${cut_bNa}	        # big-Na
#    pair_coeff  1   3   2.0     ${d_bCl}    ${cut_bCl}	        # big-Cl
#    pair_coeff  2   3   2.0     ${d_sNa}    ${cut_sNa}       	# small-Na
#    pair_coeff  2   3   2.0     ${d_sCl}    ${cut_sCl}       	# small-Cl
#    pair_coeff  3   4   2.0     ${d_NaCl}   ${cut_NaCl}       	# Na-Cl
#    pair_modify pair lj/cut/coul/long shift yes
    pair_modify shift yes
    kspace_style	pppm	5.0e-4

## ----- Simulation setup ----- ##
    neighbor 1.2 bin
    neigh_modify delay 0 every 1 check yes #one 2000

    compute temp all temp
    compute press all pressure temp

    thermo 5000
    thermo_style custom step pe temp c_press lx cpu
    thermo_modify norm no flush yes

   # dump moldump all custom 50000 ${xyzname} id type q x y z

## ----- Thermalization of system ----- ##
    timestep 0.0002

    fix 1 all nve/limit 0.05
    fix 2 big langevin ${ttemp} ${ttemp} 0.2 1234567
    fix 2 big langevin 1.8 ${ttemp} 0.2 1234567
    fix 2 big langevin 1.8 1.8 0.2 1234567
    fix 3 small langevin ${ttemp} ${ttemp} 0.008 123456
    fix 3 small langevin 1.8 ${ttemp} 0.008 123456
    fix 3 small langevin 1.8 1.8 0.008 123456

    fix freeze big setforce 0.0 0.0 0.0
    fix zeromom all momentum 1 linear 1 1 1 angular
    run ${t_nve}
    run 50000

CITE-CITE-CITE-CITE-CITE-CITE-CITE-CITE-CITE-CITE-CITE-CITE-CITE

Your simulation uses code contributions which should be cited:

- GPU package (short-range, long-range and three-body potentials):

@Article{Brown11,
 author = {W. M. Brown, P. Wang, S. J. Plimpton, A. N. Tharrington},
 title = {Implementing Molecular Dynamics on Hybrid High Performance Computers - Short Range Forces},
 journal = {Comp.~Phys.~Comm.},
 year =    2011,
 volume =  182,
 pages =   {898--911}
}

@Article{Brown12,
 author = {W. M. Brown, A. Kohlmeyer, S. J. Plimpton, A. N. Tharrington},
 title = {Implementing Molecular Dynamics on Hybrid High Performance Computers - Particle-Particle Particle-Mesh},
 journal = {Comp.~Phys.~Comm.},
 year =    2012,
 volume =  183,
 pages =   {449--459}
}

@Article{Brown13,
 author = {W. M. Brown, Y. Masako},
 title = {Implementing Molecular Dynamics on Hybrid High Performance Computers – Three-Body Potentials},
 journal = {Comp.~Phys.~Comm.},
 year =    2013,
 volume =  184,
 pages =   {2785--2793}
}

@Article{Trung15,
 author = {T. D. Nguyen, S. J. Plimpton},
 title = {Accelerating dissipative particle dynamics simulations for soft matter systems},
 journal = {Comput.~Mater.~Sci.},
 year =    2015,
 volume =  100,
 pages =   {173--180}
}

@Article{Trung17,
 author = {T. D. Nguyen},
 title = {GPU-accelerated Tersoff potentials for massively parallel Molecular Dynamics simulations},
 journal = {Comp.~Phys.~Comm.},
 year =    2017,
 volume =  212,
 pages =   {113--122}
}

@Article{Nikolskiy19,
 author = {V. Nikolskiy, V. Stegailov},
 title = {GPU acceleration of four-site water models in LAMMPS},
 journal = {Proceeding of the International Conference on Parallel Computing (ParCo 2019), Prague, Czech Republic},
 year =    2019
}

CITE-CITE-CITE-CITE-CITE-CITE-CITE-CITE-CITE-CITE-CITE-CITE-CITE

PPPM initialization ...
  using 12-bit tables for long-range coulomb (src/kspace.cpp:340)
  G vector (1/distance) = 0.11438956
  grid = 60 60 60
  stencil order = 5
  estimated absolute RMS force accuracy = 0.00041211524
  estimated relative force accuracy = 0.00041211524
  using double precision KISS FFT
  3d grid and FFT values/proc = 42875 28800
  generated 0 of 1 mixed pair_coeff terms from geometric mixing rule
Neighbor list info ...
  update every 1 steps, delay 0 steps, check yes
  max neighbors/atom: 2000, page size: 100000
  master list distance cutoff = 29
  ghost atom cutoff = 29
  binsize = 14.5, bins = 12 12 12
  1 neighbor lists, perpetual/occasional/extra = 1 0 0
  (1) pair lj/cut/coul/long/gpu, perpetual
      attributes: full, newton off
      pair build: full/bin
      stencil: full/bin/3d
      bin: standard
Per MPI rank memory allocation (min/avg/max) = 11.45 | 11.54 | 11.62 Mbytes
Step PotEng Temp c_press Lx CPU 
       0 1.7992005e+08            0    175.78446          160            0 
    5000   -68337.883    1.6065075 -0.0042668387          160     39.28745 
   10000   -73828.468    1.6779637 -0.0043247682          160    78.396239 
   15000   -78320.575    1.5693728 -0.0043722594          160    117.44795 
   20000   -82401.901    1.6465922 -0.0043151175          160    156.47715 
   25000   -85982.766    1.6300954 -0.004481247          160    195.40309 
   30000   -89537.074    1.6004155 -0.0044514699          160    234.37606 
   35000   -92843.099    1.6215692 -0.0043074539          160    273.37493 
   40000   -95999.847    1.6301954 -0.0042635192          160    312.28875 
   45000   -98805.413    1.6465637 -0.0043169244          160    351.18895 
   50000   -101239.99    1.5745587 -0.0040505017          160    390.11284 
Loop time of 390.113 on 8 procs for 50000 steps with 2304 atoms

Performance: 2214.743 tau/day, 128.168 timesteps/s
99.7% CPU use with 8 MPI tasks x 1 OpenMP threads

MPI task timing breakdown:
Section |  min time  |  avg time  |  max time  |%varavg| %total
---------------------------------------------------------------
Pair    | 9.2715     | 9.5798     | 9.8953     |   8.5 |  2.46
Bond    | 0.0070512  | 0.0097838  | 0.011271   |   1.4 |  0.00
Kspace  | 374.02     | 374.65     | 375.1      |   1.8 | 96.03
Neigh   | 0.061038   | 0.068833   | 0.075667   |   2.0 |  0.02
Comm    | 2.3241     | 2.5872     | 2.9695     |  13.2 |  0.66
Output  | 0.00035941 | 0.0012008  | 0.0070657  |   6.4 |  0.00
Modify  | 2.677      | 2.7221     | 2.7882     |   2.2 |  0.70
Other   |            | 0.4991     |            |       |  0.13

Nlocal:        288.000 ave         313 max         260 min
Histogram: 2 0 0 1 0 2 1 0 0 2
Nghost:        1330.00 ave        1354 max        1297 min
Histogram: 1 0 1 0 1 2 0 0 1 2
Neighs:         0.00000 ave           0 max           0 min
Histogram: 8 0 0 0 0 0 0 0 0 0
FullNghs:      16564.5 ave       18884 max       14067 min
Histogram: 2 0 0 1 0 3 0 0 0 2

Total # of neighbors = 132516
Ave neighs/atom = 57.515625
Ave special neighs/atom = 0.0000000
Neighbor list builds = 75
Dangerous builds = 0

#    compute     peatom      all     pe/atom
#    variable    exppe       atom    exp(2*c_peatom/${ttemp})
#    compute     aveS        small   reduce ave v_exppe
#    compute     aveCl       anion   reduce ave v_exppe
#    compute     aveNa       cation  reduce ave v_exppe
#    thermo ${every}
#    thermo_style custom step pe temp lx vol c_aveS c_aveCl c_aveNa cpu
#    thermo_modify norm no flush yes
#    variable    chempNP     equal   temp*(ln(2304/vol)+ln(18300/vol)*10+ln(c_aveS)+ln(c_aveCl)*10)
#    variable    chempS      equal   temp*(ln(5500/vol)+ln(18300/vol)+ln(c_aveNa)+ln(c_aveCl))
#    label checking
#    run ${every}
#    if "${chempNP}>${mu_np}" then 'print "ChempNP=${chempNP}; expel"' "jump gcmc.in checking" else 'print "done!"'

    fix deforming all deform 10 x final -33 33 y final -33 33 z final -33 33 remap x
    run ${t_deform}
    run 50000
PPPM initialization ...
  using 12-bit tables for long-range coulomb (src/kspace.cpp:340)
  G vector (1/distance) = 0.11438956
  grid = 60 60 60
  stencil order = 5
  estimated absolute RMS force accuracy = 0.00041211524
  estimated relative force accuracy = 0.00041211524
  using double precision KISS FFT
  3d grid and FFT values/proc = 42875 28800
  generated 0 of 1 mixed pair_coeff terms from geometric mixing rule
Per MPI rank memory allocation (min/avg/max) = 11.45 | 11.54 | 11.62 Mbytes
Step PotEng Temp c_press Lx CPU 
   50000   -101239.99    1.5745587 -0.0040505017          160            0 
   55000   -107524.35    1.6640637 -0.0034467272        150.6    41.916804 
   60000    -114335.5    1.6207581 -0.0035396122        141.2    83.841851 
   65000   -121865.08    1.6438772 -0.0039279579        131.8    125.86744 
   70000   -129896.48    1.6242739 -0.0035953887        122.4    167.97628 
   75000   -138090.17    1.6069919 -0.0015091164          113    210.13698 
   80000   -146465.51    1.6314675 0.0026566508        103.6    252.40651 
   85000   -155128.42    1.6015377  0.010204896         94.2    294.65316 
   90000   -163748.73     1.625025  0.029988574         84.8    337.06952 
   95000    -172192.4    1.6164222  0.074718601         75.4    379.67711 
  100000   -181901.91    1.6947043   0.17713886           66    422.71495 
Loop time of 422.715 on 8 procs for 50000 steps with 2304 atoms

Performance: 2043.930 tau/day, 118.283 timesteps/s
99.7% CPU use with 8 MPI tasks x 1 OpenMP threads

MPI task timing breakdown:
Section |  min time  |  avg time  |  max time  |%varavg| %total
---------------------------------------------------------------
Pair    | 9.9514     | 10.362     | 10.683     |   8.5 |  2.45
Bond    | 0.0070383  | 0.009744   | 0.011907   |   1.5 |  0.00
Kspace  | 376.4      | 376.79     | 377.24     |   1.6 | 89.14
Neigh   | 0.78889    | 0.86338    | 0.92448    |   5.0 |  0.20
Comm    | 3.657      | 4.0636     | 4.4284     |  11.8 |  0.96
Output  | 0.00048139 | 0.0048214  | 0.011384   |   5.7 |  0.00
Modify  | 25.244     | 27.831     | 29.927     |  35.0 |  6.58
Other   |            | 2.789      |            |       |  0.66

Nlocal:        288.000 ave         304 max         277 min
Histogram: 2 1 0 1 1 1 0 1 0 1
Nghost:        5856.00 ave        5887 max        5820 min
Histogram: 1 1 0 1 1 0 0 1 2 1
Neighs:         0.00000 ave           0 max           0 min
Histogram: 8 0 0 0 0 0 0 0 0 0
FullNghs:      235163.0 ave      250200 max      225436 min
Histogram: 2 1 0 2 0 1 0 1 0 1

Total # of neighbors = 1881306
Ave neighs/atom = 816.53906
Ave special neighs/atom = 0.0000000
Neighbor list builds = 338
Dangerous builds = 0

    unfix 1
#    unfix 2
    unfix freeze
    unfix deforming

    timestep 0.002

    fix 1 all   nph	            iso ${ipress} ${ipress} 1.0
    fix 1 all   nph	            iso 0.1 ${ipress} 1.0
    fix 1 all   nph	            iso 0.1 0.1 1.0
    run ${t_pressed}
    run 50000
PPPM initialization ...
  using 12-bit tables for long-range coulomb (src/kspace.cpp:340)
  G vector (1/distance) = 0.1206864
  grid = 32 32 32
  stencil order = 5
  estimated absolute RMS force accuracy = 0.00049681107
  estimated relative force accuracy = 0.00049681107
  using double precision KISS FFT
  3d grid and FFT values/proc = 9261 4096
  generated 0 of 1 mixed pair_coeff terms from geometric mixing rule
Per MPI rank memory allocation (min/avg/max) = 9.326 | 9.329 | 9.331 Mbytes
Step PotEng Temp c_press Lx CPU 
  100000   -181861.89    1.6947043   0.17877275           66            0 
  105000   -200232.65    1.8081445  0.098977671      61.8813    14.167282 
  110000   -201864.54      1.79151  0.099455408    60.938251    28.551441 
  115000   -203178.63    1.7304885   0.10666439    60.337598    43.124452 
  120000   -203970.79    1.7621243   0.10184311    60.117553    57.780464 
  125000   -204209.18    1.8466011    0.0986642    60.144868    72.434777 
  130000   -204404.42    1.8596069  0.098469044    60.097782    87.076649 
  135000   -204474.48    1.7701113  0.099717883    60.084097     101.7488 
  140000   -204823.93    1.7575548   0.10021083    60.071883    116.42135 
  145000   -204804.66    1.7737269  0.095913511    60.084205    131.07461 
  150000   -205054.65    1.8240433  0.091624535    60.097034    145.71117 
Loop time of 145.711 on 8 procs for 50000 steps with 2304 atoms

Performance: 59295.329 tau/day, 343.144 timesteps/s
97.2% CPU use with 8 MPI tasks x 1 OpenMP threads

MPI task timing breakdown:
Section |  min time  |  avg time  |  max time  |%varavg| %total
---------------------------------------------------------------
Pair    | 14.839     | 18.513     | 20.698     |  40.4 | 12.71
Bond    | 0.0048861  | 0.0054468  | 0.0062799  |   0.7 |  0.00
Kspace  | 65.804     | 66.49      | 67.382     |   7.2 | 45.63
Neigh   | 6.9377     | 7.1328     | 7.4468     |   5.4 |  4.90
Comm    | 6.0988     | 6.1641     | 6.2107     |   1.4 |  4.23
Output  | 0.00031893 | 0.00048362 | 0.0016192  |   0.0 |  0.00
Modify  | 42.312     | 45.354     | 46.871     |  20.3 | 31.13
Other   |            | 2.051      |            |       |  1.41

Nlocal:        288.000 ave         291 max         283 min
Histogram: 1 0 0 1 0 2 0 0 3 1
Nghost:        7253.00 ave        7267 max        7235 min
Histogram: 1 1 0 0 2 0 0 1 1 2
Neighs:         0.00000 ave           0 max           0 min
Histogram: 8 0 0 0 0 0 0 0 0 0
FullNghs:      314691.0 ave      317726 max      308647 min
Histogram: 1 0 0 1 0 2 0 0 0 4

Total # of neighbors = 2517526
Ave neighs/atom = 1092.6762
Ave special neighs/atom = 0.0000000
Neighbor list builds = 789
Dangerous builds = 0
    unfix 1
    fix 1 all   nph	            iso ${ipress} ${ppress} 1.0
    fix 1 all   nph	            iso 0.1 ${ppress} 1.0
    fix 1 all   nph	            iso 0.1 0 1.0
    run ${t_relaxed}
    run 100000
PPPM initialization ...
  using 12-bit tables for long-range coulomb (src/kspace.cpp:340)
  G vector (1/distance) = 0.12137582
  grid = 30 30 30
  stencil order = 5
  estimated absolute RMS force accuracy = 0.00050278678
  estimated relative force accuracy = 0.00050278678
  using double precision KISS FFT
  3d grid and FFT values/proc = 8000 3600
  generated 0 of 1 mixed pair_coeff terms from geometric mixing rule
Per MPI rank memory allocation (min/avg/max) = 9.786 | 9.804 | 9.816 Mbytes
Step PotEng Temp c_press Lx CPU 
  150000   -205054.52    1.8240433  0.091629631    60.097034            0 
  155000   -204934.61    1.8283614  0.099901145    60.089641    14.130941 
  160000   -204955.86    1.8116708   0.09197143    60.179496     28.35778 
  165000   -204983.02    1.7893969  0.086246387    60.257016    42.516537 
  170000   -205068.77    1.8024479  0.079678477    60.277781    56.608865 
  175000   -205121.61    1.8601811  0.073486714    60.397069    70.801475 
  180000   -204902.32    1.7807043   0.07267471    60.407572    84.965973 
  185000   -205071.32    1.8009041  0.060721881    60.495592    99.083804 
  190000   -204864.53    1.7858845  0.066507251    60.539256    113.22332 
  195000   -204725.37    1.7767437  0.050604191    60.759393    127.28946 
  200000   -204796.73    1.8057485  0.056470506    60.664361    141.34147 
  205000   -204803.71    1.8132432  0.035784868     60.95211    155.42571 
  210000   -205060.74     1.812449  0.032118548    60.943355    169.46348 
  215000   -204992.16    1.7738055   0.03001937    61.000238    183.40386 
  220000   -204588.37    1.8988343  0.032179723    61.074039    197.42368 
  225000   -204425.67    1.8047052  0.028360796    61.236576    211.40657 
  230000   -204476.06    1.8847851  0.021511064    61.324903    225.37242 
  235000   -204385.39    1.7271285  0.014469733    61.392857     239.3035 
  240000   -204107.22    1.8044024 0.0089903607    61.553864    253.20282 
  245000   -203798.51    1.8079911 0.0077892023    61.746144    267.09444 
  250000   -203376.78    1.7442599 -0.0034978673    61.982533    280.92458 
Loop time of 280.925 on 8 procs for 100000 steps with 2304 atoms

Performance: 61511.130 tau/day, 355.967 timesteps/s
94.2% CPU use with 8 MPI tasks x 1 OpenMP threads

MPI task timing breakdown:
Section |  min time  |  avg time  |  max time  |%varavg| %total
---------------------------------------------------------------
Pair    | 53.847     | 58.866     | 64.919     |  40.3 | 20.95
Bond    | 0.0094718  | 0.01118    | 0.013028   |   1.0 |  0.00
Kspace  | 107.73     | 109.27     | 110.72     |  12.2 | 38.90
Neigh   | 14.001     | 14.33      | 14.835     |   6.5 |  5.10
Comm    | 12.273     | 12.343     | 12.411     |   1.3 |  4.39
Output  | 0.00063763 | 0.0012811  | 0.0057533  |   4.7 |  0.00
Modify  | 63.824     | 78.962     | 86.812     |  90.6 | 28.11
Other   |            | 7.146      |            |       |  2.54

Nlocal:        288.000 ave         293 max         281 min
Histogram: 1 0 1 1 0 1 0 1 0 3
Nghost:        6831.50 ave        6891 max        6768 min
Histogram: 1 0 1 2 0 0 1 1 1 1
Neighs:         0.00000 ave           0 max           0 min
Histogram: 8 0 0 0 0 0 0 0 0 0
FullNghs:      285452.0 ave      290919 max      277658 min
Histogram: 1 0 0 2 1 0 0 1 1 2

Total # of neighbors = 2283620
Ave neighs/atom = 991.15451
Ave special neighs/atom = 0.0000000
Neighbor list builds = 1587
Dangerous builds = 0
    unfix 1

    timestep 0.001
    dump moldump all custom 10000 ${xyzname} id type q x y z
    dump moldump all custom 10000 r8f0_coulombic_1.8.lammpstrj id type q x y z
    fix 1 all   nph                 iso ${ppress} ${ppress} 1.0
    fix 1 all   nph                 iso 0 ${ppress} 1.0
    fix 1 all   nph                 iso 0 0 1.0
    run ${t_eq}
    run 10000000
PPPM initialization ...
  using 12-bit tables for long-range coulomb (src/kspace.cpp:340)
  G vector (1/distance) = 0.12064783
  grid = 30 30 30
  stencil order = 5
  estimated absolute RMS force accuracy = 0.00054998948
  estimated relative force accuracy = 0.00054998948
  using double precision KISS FFT
  3d grid and FFT values/proc = 8000 3600
  generated 0 of 1 mixed pair_coeff terms from geometric mixing rule
Per MPI rank memory allocation (min/avg/max) = 11.05 | 11.07 | 11.08 Mbytes
Step PotEng Temp c_press Lx CPU 
  250000   -203376.82    1.7442599 -0.0034994072    61.982533            0 
  255000   -203540.66    1.7447947 -0.001702098    62.008607    13.450148 
  260000   -203473.94    1.7744253 0.0069662826    61.970499    26.886826 
  265000   -203361.92    1.7846495 -5.5205577e-05    62.090935    40.316163 
  270000   -203262.86    1.8027799   0.00469815    62.127543    53.742956 
  275000   -203219.41    1.7685814 0.0018332075    62.204737    67.145779 
  280000    -202969.7    1.8035501 -0.0017273902    62.295746    80.539054 
  285000   -203017.92     1.743232 0.0043361669    62.210826    93.918293 
  290000   -203178.62     1.794882  0.005821267    62.207422    107.30383 
  295000   -203055.56    1.8455566 0.0038964172    62.206814    120.72387 
  300000   -202882.07    1.8302548 -0.0002047043    62.319426    134.11632 
  305000   -202921.83    1.7730148 -0.0036265388    62.301337    147.52615 
  310000   -202822.16     1.797469 -0.0019496864    62.299971    160.92168 
  315000    -202688.3    1.8240368 -0.0019785344     62.42163    174.31926 
  320000   -202923.19    1.8237247 -0.002091003    62.402941    187.67603 
  325000   -202939.98    1.7389302 0.00031224534    62.322136    201.03506 
  330000    -202895.1    1.8346194 0.00045497939    62.281687    214.48899 
  335000   -202795.94    1.8172707 0.0031404881    62.398297    227.89177 
  340000   -202837.63    1.8135288 -0.0042679455     62.49506    241.22331 
  345000   -202769.58    1.7896183 -0.0019074672    62.464812    254.54054 
  350000   -202680.48    1.8161376  0.001435423    62.442791     267.8878 
  355000   -202775.85    1.8406686  0.001754565    62.412304    281.21789 
  360000   -202536.84    1.8011136 -7.3816904e-05    62.523262    294.53575 
  365000   -202416.03    1.8492757 0.0035992991    62.519586       307.87 
  370000   -202417.91    1.8135671 -0.002357752    62.619379    321.19613 
  375000   -202214.86     1.772042 -0.0036329604    62.730809    334.52328 
  380000   -202211.39    1.8231943 0.0066875301    62.612426    347.84975 
  385000   -202115.85    1.8672375 0.0035319354    62.765639    361.17026 
  390000   -202147.17    1.8022596 -0.0084674302    62.904966    374.47284 
  395000   -202011.85      1.78278 0.0021626397    62.851359    387.76471 
  400000   -202063.19    1.7961555 -0.00058525429    62.900503    401.08391 
  405000   -202185.71    1.7752944 0.0037105613    62.840325    414.33442 
  410000   -202184.76    1.7885166  -0.00153334    62.950489     427.5937 
  415000   -202096.38    1.7913773 0.0053631476    62.848334    440.88617 
  420000   -201937.82    1.7852729  -0.00018238    62.953634    454.10861 
  425000   -201971.93    1.8167935 -0.0061893733    63.029231    467.35007 
  430000   -201891.63    1.7594063 0.0042428579    63.036417    480.55949 
  435000   -201839.47    1.7712358 0.0058269749    63.166829    493.75249 
  440000   -201592.88    1.8137954 0.0023547438    63.244087    506.95579 
  445000   -201684.69     1.778736 0.0041190277    63.175569    520.13678 
  450000   -201874.24      1.81978 -0.00099864613    63.163655    533.34019 
  455000   -201620.71    1.8300952 -0.0033820299     63.26396    546.57252 
  460000   -201514.76    1.8012194 0.0036203714    63.336239    559.83638 
  465000   -201488.99    1.8389988 -0.0027904085     63.39452     573.0539 
  470000    -201480.1     1.777145 -0.0033202087    63.382026     586.2775 
  475000      -201505    1.8462474 0.0072193215    63.270339    599.50148 
  480000   -201230.15    1.7943563 -0.0042345008    63.560089    612.65893 
  485000   -201311.52    1.7863021 0.0010211429    63.545168    625.79609 
  490000   -201398.77    1.8239325 0.0032068817    63.478675    638.95449 
  495000   -201527.74    1.7929794 -0.00090036238    63.456874    652.13474 
  500000   -201526.16    1.7734219 -0.0017541646    63.466675    665.29348 
  505000   -201351.35    1.8201252 0.0045910296    63.487374    678.46768 
  510000   -201360.73     1.805195 -0.0039219511    63.746741    691.60619 
  515000      -201369    1.8071502 -0.0028238619    63.729751    704.73564 
  520000   -201372.44    1.7616534 -0.0026865856    63.663434    717.86094 
  525000   -201167.37    1.7535449 0.00066777918    63.612745    731.04262 
  530000   -201244.38    1.7743429 -0.0024981501    63.661967    744.20723 
  535000   -201145.03    1.8311839 -0.0014103411    63.756193    757.30347 
  540000   -201077.56    1.7837708 -0.001427066    63.781138    770.39497 
  545000   -201073.58    1.8006627 0.00070181655    63.862854    783.51875 
  550000   -201079.78    1.8349884 -0.0027207663    63.998556    796.60551 
  555000   -201112.57    1.8032899 0.0013007131    63.942025    809.69813 
  560000   -201034.11    1.8115466 0.0046053042    63.912706    822.76486 
  565000    -200862.8     1.732512 -0.0026269241    64.141619    835.85698 
  570000   -200826.86    1.7693561 0.0026746965    64.160313    848.86692 
  575000   -200970.45    1.8309959 0.00029689855    64.138067    861.89699 
  580000   -200881.87    1.7857347 -0.0042613505    64.323856    874.91842 
  585000    -200870.4    1.7721242 -0.0040954513    64.353062    887.91603 
  590000   -200765.93    1.7903318 -0.0020200833    64.354088    900.91322 
  595000   -200806.12    1.8277862 -0.00086065961    64.512945     913.9397 
  600000   -200730.21    1.8637749 -0.0040511382    64.528267    926.95253 
  605000   -201022.81    1.7654355 0.0039118051    64.375691    939.95048 
  610000   -200775.22    1.8127481 -0.0011476453     64.57543    952.94105 
  615000   -200819.85    1.7499092 0.0077252835    64.454591    965.91881 
  620000   -200882.65    1.7508859 -0.00016993452     64.60865    978.90716 
  625000   -200727.39    1.8145754 0.0028720443    64.615995     991.8611 
  630000   -200641.76    1.8268957 -0.0003624448     64.69031     1004.792 
  635000   -200556.01    1.8092086 -0.00075951585    64.754043    1017.7403 
  640000   -200870.59    1.7714901 -0.00054104481    64.664578    1030.7001 
  645000   -200497.45    1.7595397 0.0015839074    64.709246    1043.6935 
  650000   -200759.97    1.8055722 -0.0019748955    64.704921    1056.6644 
  655000    -200595.6    1.7984046 -0.00014732835    64.866379     1069.624 
  660000   -200681.64    1.7959015 0.0015597387    64.888892    1082.5575 
  665000   -200810.14    1.8068806 0.0020966174    64.934427    1095.5145 
  670000   -200531.05    1.8543244 -0.0006172984    65.040383    1108.4377 
  675000   -200618.82    1.7618383 0.0036315677    64.819234    1121.3556 
  680000   -200756.57    1.7838706 -0.00078045982    65.005717    1134.3227 
  685000   -200589.64    1.8380973 0.0049485933    64.890327    1147.2466 
  690000    -200689.5     1.809541 -0.0023008715    64.966591    1160.1805 
  695000   -200599.58    1.7946719 0.0063146494    64.884517    1173.1087 
  700000   -200478.98    1.7755566 0.0025375371    64.982248    1186.0274 
  705000   -200580.18    1.8108922 0.00028956434    64.954352    1198.8936 
  710000   -200625.53    1.8238301 0.0034606233    64.972689    1211.7985 
  715000   -200681.26    1.8389701 -0.0041078242    65.106287    1224.7097 
  720000   -200603.32    1.8211333 -0.0019136372    65.077629    1237.6293 
  725000   -200557.46    1.8015135 -0.0017713875    65.120155    1250.5432 
  730000   -200412.09    1.7833522 0.00017018868    65.172476      1263.42 
  735000   -200383.74    1.8249178 0.0028494793    65.089096    1276.3369 
  740000    -200604.6    1.8426623 0.00082152905    65.126267    1289.2414 
  745000   -200625.82    1.7671795 0.0033532585    65.047495    1302.1368 
  750000   -200541.66    1.7950749 -0.00065792611    65.115175    1315.0318 
  755000   -200594.35     1.806644 -0.0024528996    65.053678    1327.9634 
  760000   -200583.46    1.7766029 0.0035183787    64.950981    1340.8635 
  765000   -200583.43    1.8240126 -0.0039569683    65.077664    1353.7922 
  770000   -200562.44    1.7928093 -0.0001084313    65.018662    1366.7115 
  775000    -200640.8    1.8727253 0.0012100637    65.159775    1379.6066 
  780000   -200511.75    1.7745454 0.0034570346    65.056792    1392.4676 
  785000    -200524.6    1.7918036 -0.00062813687    65.169884    1405.3549 
  790000   -200780.17    1.7917676 0.0028016784    65.059838    1418.2537 
  795000   -200389.16    1.7548729 0.0066290464    65.048911    1431.1122 
  800000   -200460.32    1.7873563 -0.0013667849    65.183012    1444.0119 
  805000   -200566.32    1.8625489 0.0044061382     65.05329     1456.867 
  810000   -200316.22    1.8539394 -0.0015339713    65.310225    1469.7579 
  815000   -200434.23    1.7947838 0.0032216832    65.148749     1482.623 
  820000    -200725.8    1.7868342 0.0018894349    65.172198    1495.4829 
  825000   -200538.84    1.7820889 0.0036578292    65.222367    1508.3536 
  830000   -200496.83    1.7940472 0.0014986432    65.308705      1521.23 
  835000    -200572.6    1.7807964 -0.0025590793    65.327058    1534.0637 
  840000   -200505.11    1.7804453 -0.0031316252    65.365343    1546.9031 
  845000   -200535.48    1.7908998 -0.0025676505    65.235434    1559.7512 
  850000   -200646.18     1.796299 -0.00050512413    65.176023     1572.596 
  855000   -200421.71    1.7481379 0.00081017552    65.273041    1585.4106 
  860000      -200483    1.8246274 -0.00077384613    65.297302     1598.286 
  865000   -200562.87    1.7914799 -0.0031876141    65.303409    1611.1702 
  870000   -200636.79    1.7748715 0.0028478246    65.280333    1624.0547 
  875000   -200706.58    1.7564411 0.0013672406    65.316342    1636.9413 
  880000   -200657.03    1.8104696 0.0018050862    65.378214    1649.7604 
  885000   -200637.66    1.8433887 0.00075045837    65.289238    1662.6152 
  890000    -200613.9    1.8000426 -0.00042584295    65.296215    1675.4516 
  895000   -200416.35    1.8321868 -0.0027286859     65.36726    1688.3328 
  900000   -200572.09    1.7710171 -0.00096422811     65.23999    1701.1578 
  905000   -200446.92     1.779167 -0.0042476123    65.222358    1714.0704 
  910000   -200538.71    1.8097451 0.0011102077    65.263634    1726.9863 
  915000   -200619.46    1.8027233 -0.0037227188    65.294063    1739.8779 
  920000   -200602.06    1.7658361 0.0025537628    65.193772    1752.7104 
  925000   -200581.07    1.7886625 -0.00067218453    65.097308    1765.5931 
  930000   -200528.53    1.7929066 0.0014643005    65.077543    1778.5292 
  935000   -200726.04    1.8293438 -0.0017606342     65.10017    1791.4517 
  940000   -200477.54    1.8306691 0.0025528918    65.121986    1804.3475 
  945000   -200780.87    1.7850703 -0.00044835325    64.952443    1817.2658 
  950000   -200473.56    1.8161717 -0.002727406    65.111657    1830.1609 
  955000   -200476.32    1.7997919 -0.0048110046    65.091427    1843.0869 
  960000   -200656.53    1.8368574 0.0024234756    64.974745    1855.9989 
  965000   -200483.42    1.7908425 0.0032430725    64.920757     1868.926 
  970000   -200712.02    1.8240178 0.00032819735    65.018545    1881.8515 
  975000   -200722.49    1.7805672 -0.0018806814     65.08322    1894.7554 
  980000   -200555.87    1.7937204 0.00010367643    65.087496    1907.6332 
  985000   -200670.77    1.8106268 0.0042260069    65.119357    1920.5245 
  990000   -200613.22     1.758566 -2.7569179e-05    65.137893    1933.4097 
  995000   -200658.18    1.7875678  0.001033279    65.101332    1946.3039 
 1000000   -200653.03    1.8081907 -0.001403947    65.150673    1959.1444 
 1005000   -200521.76    1.8101648 0.0010299418    65.067256    1971.9449 
 1010000   -200671.65    1.7876786 -8.2088423e-05    65.094234    1984.7482 
 1015000   -200488.55    1.7869408 -0.0029329005    65.119673    1997.5566 
 1020000   -200573.96    1.7493894  0.004715929    64.912283    2010.3889 
 1025000   -200599.97    1.8111237  0.002825172    65.124767    2023.1945 
 1030000   -200594.49    1.8162218 0.0027041975    65.172935     2035.996 
 1035000   -200656.14    1.8022031 0.0011644949     65.05335    2048.8307 
 1040000   -200609.96    1.7445628 -0.0020788839    65.200243    2061.6432 
 1045000   -200652.16     1.756929 -0.0011081612    65.098172    2074.4664 
 1050000   -200311.07    1.8155156 -0.0018959464    65.120076    2087.3162 
 1055000   -200701.52    1.7984913 0.0033372773    64.980082    2100.1273 
 1060000    -200401.4    1.8056436 0.0046755679    65.021418    2112.9654 
 1065000   -200463.29    1.8097737 -0.0025932282    65.128272     2125.778 
 1070000   -200521.61     1.875269 -0.0016438147    65.165958    2138.6111 
 1075000   -200447.52    1.7610243 0.0027762548    64.974803    2151.4719 
 1080000   -200686.42    1.8082615 -0.0040473462    65.073172    2164.2835 
 1085000   -200529.66    1.7975161 -0.0018022408    65.021206    2177.0998 
 1090000   -200485.75    1.8158086 0.0031332865    64.972485     2189.951 
 1095000   -200569.65    1.7936243 0.0044204447    64.968713    2202.7871 
 1100000   -200634.84    1.8197675 -0.0014536451    65.048969    2215.6025 
 1105000   -200624.42    1.7786022 -0.0018908784    65.081668    2228.4382 
 1110000   -200391.59    1.8457596 0.0040667544    65.106459    2241.2741 
 1115000   -200279.26    1.7578907 -0.0028537176    65.239674    2254.0774 
 1120000   -200319.81    1.7951052 -0.0012549838    65.222019    2266.8308 
 1125000   -200477.06    1.8086558 0.00092625507    65.300812    2279.5728 
 1130000   -200584.41    1.8011825 0.0033742446    65.261217    2292.3838 
 1135000   -200454.52    1.8448333 0.00047018174     65.28496    2305.1723 
 1140000   -200563.95    1.7600289 3.1573622e-05    65.183513    2317.9497 
 1145000   -200424.59    1.8319336 -0.00017688549    65.264988    2330.7269 
 1150000   -200402.31    1.7695138 0.0004352097    65.204862    2343.5026 
 1155000   -200381.22    1.7948621 -0.0054118835    65.205635    2356.2883 
 1160000   -200365.39    1.7992288 0.0010200678    65.128582    2369.0912 
 1165000   -200601.71    1.8421479  0.001653138    65.071648    2381.9137 
 1170000   -200632.85    1.7603742 0.00081241081    65.033368    2394.7333 
 1175000   -200601.32    1.7954974 -0.0016257014    65.080265    2407.5319 
 1180000   -200547.41    1.8269182 -0.0010358041    65.072008    2420.3519 
 1185000   -200547.07    1.7733922 0.0028938572    65.084843    2433.1782 
 1190000   -200536.34    1.8116596 0.0034469156    65.023248    2446.0304 
 1195000   -200701.68    1.8178691 -0.00035240563    65.095407    2458.8177 
 1200000   -200782.09    1.8330352 -0.00088504194    65.116138    2471.6652 
 1205000   -200828.12    1.7703825 -0.0031268227    65.061987    2484.4669 
 1210000   -200676.74    1.8408437 -0.0043441691    65.010218    2497.3046 
 1215000   -200590.75    1.7295067 -0.0023187998    65.046235    2510.1745 
 1220000   -200664.85     1.815706 -0.0021103712    65.079831    2523.0341 
 1225000   -200436.07    1.7805773 0.0041612148    65.126847    2535.9008 
 1230000   -200671.24    1.7798483 -0.0015033439    65.124463    2548.7162 
 1235000   -200677.67    1.7776441  0.001131562    64.997133    2561.5579 
 1240000    -200475.8    1.7836557 -0.0022689672    65.124463    2574.3922 
 1245000   -200626.58    1.8293677 0.00044282072    65.018021    2587.2546 
 1250000   -200473.94    1.7642328 -0.0051154662    65.073374    2600.0735 
 1255000   -200507.55    1.7662523 -0.00054345736    64.967635    2612.9571 
 1260000   -200764.53     1.794754 0.0020343844    64.948019    2625.7734 
 1265000   -200771.82    1.8008597 -0.0035004453     65.11021    2638.5957 
 1270000   -200518.61    1.7979291 -0.0041234886    65.061317    2651.4197 
 1275000   -200661.45    1.7686656 -0.0041118035    64.988869    2664.2531 
 1280000   -200711.55    1.8139372 0.0019995756     64.90754    2677.1127 
 1285000    -200715.4    1.8435589 0.00069589576    65.058175    2689.9482 
 1290000   -200710.97    1.7526389 -0.00088267814    65.143763    2702.7783 
 1295000   -200780.45    1.8579005 -0.00025851901    65.089074      2715.62 
 1300000   -200761.16    1.8041871  0.004807613    64.956954    2728.4478 
 1305000   -200607.45    1.7874982 -0.0068079932    65.206438    2741.3001 
 1310000    -200952.4    1.7625645 0.0039311319     64.98955    2754.1075 
 1315000   -200699.59    1.7233109 0.0039710182    65.076615    2766.9758 
 1320000   -200528.45    1.7810838 -0.0045059414    65.242854    2779.7918 
 1325000   -200601.18     1.841846 -0.0021907366     65.13659    2792.5938 
 1330000   -200600.36    1.8165983 -0.003760423    65.214087    2805.3789 
 1335000   -200664.14    1.7752326 -0.003553396    65.214216    2818.2145 
 1340000   -200618.89    1.8329691 -0.0010796961    65.159551    2831.0687 
 1345000   -200546.78    1.7548204 -0.0013740732    65.191296    2843.8943 
 1350000   -200566.04    1.7622294 -0.00016889156    65.191769    2856.6565 
 1355000   -200419.86    1.7514112 0.0010690862    65.248135    2869.4453 
 1360000   -200374.55    1.8585962 -0.00071563611    65.320843    2882.2578 
 1365000   -200562.57    1.8026705 -0.00036321403    65.258678    2895.0194 
 1370000    -200611.6    1.8517905 -0.00063301162     65.21986    2907.8276 
 1375000   -200985.17    1.7952476 -0.0017364459    65.181548    2920.6124 
 1380000   -200672.06    1.7867894 -0.00053479164     65.24546    2933.3956 
 1385000   -200596.96    1.8364942 -0.0020547288    65.322672    2946.1639 
 1390000   -200581.47    1.8036165 0.00044333572     65.35581    2958.9598 
 1395000   -200548.66    1.7638366 -0.0023457757    65.395585    2971.7778 
 1400000    -200837.6    1.8251645 0.0018095453    65.246627    2984.5436 
 1405000    -200676.8     1.791295 0.0041819012    65.342011    2997.3753 
 1410000   -200532.11    1.8235328 0.0022407575    65.277345    3010.1693 
 1415000   -200623.95    1.7984705 -0.0014099725     65.39414    3022.9891 
 1420000   -200630.23    1.7390852 -0.0019831581    65.393259     3035.781 
 1425000    -200653.8    1.7694948 -0.0039523098     65.41422    3048.5919 
 1430000   -200842.19    1.8093038 -0.00091426798    65.301582    3061.3928 
 1435000   -200756.94    1.8061579 -0.0019006443    65.309624     3074.216 
 1440000   -200714.69    1.8251463 -0.005924049     65.32627    3086.9952 
 1445000   -200637.08    1.8117994  0.002324419    65.248512    3099.7375 
 1450000   -200567.01    1.7567477 0.0024327428    65.277945    3112.5228 
 1455000   -200495.98    1.7708934 -0.0036685235    65.292124    3125.2987 
 1460000   -200609.03    1.7639133 0.0034511712    65.161084    3138.0911 
 1465000   -200413.02    1.8159969 -0.00096487765    65.359556    3150.9067 
 1470000   -200408.89    1.7598143 0.0030602822    65.215205     3163.703 
 1475000    -200393.3    1.8075401 0.0010951305    65.179471    3176.4961 
 1480000   -200674.58    1.7705694 -0.00067064025    65.159822    3189.2815 
 1485000   -200794.88    1.7976336 0.0030889575    65.087511    3202.0728 
 1490000   -200510.79    1.7895585 0.0015326872    65.271354    3214.9048 
 1495000   -200756.38    1.7897972 -0.0052668591    65.342354    3227.7167 
 1500000   -200589.82    1.8013181 -0.00025110655    65.268668    3240.5519 
 1505000   -200676.04    1.7898323 0.0014014453    65.248001    3253.3692 
 1510000    -200501.8    1.7197816 0.0035270491     65.15687    3266.1971 
 1515000   -200700.55    1.7934437 0.0060723539    65.123811    3279.0058 
 1520000   -200706.21    1.8045452 0.00052198554    65.140959    3291.7859 
 1525000   -200622.53     1.813581 -0.00078890586     65.16681    3304.5816 
 1530000   -200708.46    1.7659937 0.0028198268    65.038342     3317.427 
 1535000   -200506.44    1.7550327 0.00099373513    65.097181    3330.1901 
 1540000   -200614.42    1.8134709 0.00094945764    65.145339    3343.0035 
 1545000   -200511.45    1.8098944 0.00034480688    65.272619    3355.8301 
 1550000   -200760.48    1.7943933 -0.001851574    65.324996    3368.6236 
 1555000   -200760.83    1.8597127 -0.0041979048    65.281908    3381.4243 
 1560000   -200648.69    1.7500477 0.0024112704     65.14729    3394.2162 
 1565000   -200805.04    1.8004919 -0.001032078    65.169207    3407.0508 
 1570000   -200478.07    1.7966389 -0.0045527086    65.371229    3419.8539 
 1575000   -200709.35    1.8098076 -0.0015663371    65.293382    3432.6617 
 1580000   -200604.07    1.7970244 3.0235785e-05     65.30109    3445.4506 
 1585000   -200420.28    1.8016577 0.0014815454    65.361125    3458.2301 
 1590000   -200626.68    1.7835166 -0.0022354941    65.247054    3471.0137 
 1595000   -200605.78     1.777594 -0.0011908499    65.295066    3483.8615 
 1600000   -200579.92    1.7883108 -0.0012595832     65.14023    3496.6609 
 1605000   -200772.72      1.77816 0.0042429598     65.02793      3509.42 
 1610000   -200775.75     1.811038 -0.0010261736    65.108102    3522.2884 
 1615000   -200570.64    1.7668343 -0.00050983088    65.168946    3535.0738 
 1620000   -200504.59    1.7808782 -0.00034735792    65.209291    3547.8682 
 1625000    -200734.9    1.8108299 0.0021605223    65.153962    3560.6577 
 1630000   -200362.62    1.8162492 0.0018358173    65.267167    3573.4538 
 1635000    -200590.5    1.7766685 0.0033290107    65.163684     3586.241 
 1640000    -200566.1     1.800199 -0.00046016915     65.24303    3599.0239 
 1645000      -200598    1.8185433 -0.00071342454    65.233121    3611.7982 
 1650000   -200512.86    1.7999632 0.0013387639    65.311195    3624.5446 
 1655000   -200532.67    1.8109314 -0.0039391366    65.472034    3637.3225 
 1660000   -200473.13    1.8048356 0.0014492555    65.369092    3650.1078 
 1665000   -200576.61    1.8681879 -0.001620532    65.447531    3662.8706 
 1670000   -200710.58    1.8318699 -0.0032393675    65.323655    3675.6694 
 1675000    -200431.2    1.8035209 -0.0021738744    65.366407    3688.4149 
 1680000   -200473.68    1.7707897  -0.00475265     65.41919    3701.2245 
 1685000   -200698.04     1.799795 -0.00036378784    65.200782    3714.0151 
 1690000   -200615.62    1.8000039 -0.0031613882    65.299012    3726.7762 
 1695000   -200509.62    1.7608426 0.0015098653    65.221964    3739.5466 
 1700000   -200500.35    1.8000057 0.00037681937    65.211668    3752.3545 
 1705000   -200390.17    1.7508092 -0.0047326341    65.531506    3765.1385 
 1710000   -200496.33    1.8055546 0.00024843355    65.568413    3777.8639 
 1715000   -200519.54    1.8079086 0.00092620412    65.451249    3790.6397 
 1720000   -200636.04    1.8305865 0.0035277927    65.346938    3803.4208 
 1725000   -200795.74    1.7651497 -8.5152882e-05    65.345463    3816.2273 
 1730000   -200645.23    1.7626892 0.0037334878    65.358771    3828.9942 
 1735000   -200559.36    1.7635742 -0.0013166343    65.434697    3841.7462 
 1740000   -200512.83     1.802451 -0.0012708354    65.499331    3854.5019 
 1745000   -200596.19    1.7795088 0.0026524371    65.390531    3867.2967 
 1750000   -200408.48    1.7792486 -0.00077244086    65.489718    3880.0381 
 1755000   -200554.03    1.8258999 0.0021908702    65.460037    3892.8157 
 1760000   -200458.39    1.8535503 0.00015347072    65.447735    3905.5966 
 1765000   -200633.14    1.7787323 0.0031439689    65.323895    3918.3683 
 1770000   -200529.15    1.7812775 -0.00045010354    65.468065    3931.1391 
 1775000    -200474.1    1.8100549 0.0039419013    65.318096    3943.9451 
 1780000   -200797.62    1.7724213 -0.0011398703    65.379216    3956.7396 
 1785000   -200664.31    1.7793444 0.00059542985    65.320863    3969.5232 
 1790000   -200682.62    1.8045224 -0.0001092209    65.285784    3982.3382 
 1795000   -200489.77    1.8263269 8.1648205e-05    65.354868    3995.1486 
 1800000   -200656.18    1.7634657 -0.0018654309     65.26021    4007.9457 
 1805000   -200486.11    1.8158491 0.00025145034    65.386194    4020.6998 
 1810000   -200501.61    1.7652504 0.0025411677    65.350914    4033.4572 
 1815000   -200462.32    1.7869793 -0.0022957788     65.33178    4046.2444 
 1820000   -200635.03    1.8002096 0.0025170709    65.169654     4059.065 
 1825000   -200735.98    1.8451668 -0.00064335402    65.277801    4071.8382 
 1830000   -200637.17    1.8303945 2.7610151e-07     65.31074    4084.6633 
 1835000   -200568.02    1.8210718 0.0011380615    65.209555    4097.4664 
 1840000   -200597.38    1.8183118 0.0036317591    65.232431     4110.307 
 1845000   -200528.44    1.7959703 0.0034325052    65.330643    4123.0932 
 1850000   -200525.37    1.7821491 -0.002708718    65.344328    4135.8657 
 1855000   -200560.31    1.7818182 0.0030750833     65.24318    4148.6681 
 1860000   -200487.59    1.7991384 0.00087659066    65.262352    4161.4598 
 1865000   -200573.99    1.7955135 0.0042384294    65.184209    4174.2612 
 1870000   -200761.83    1.7539841 0.00042022803    65.210225    4187.0646 
 1875000   -200579.19    1.7843774 -0.00086191916    65.225051    4199.8926 
 1880000   -200653.89    1.7979419 0.0077529415     65.06896    4212.7099 
 1885000   -200440.06    1.8572981 -0.0013646871    65.413592    4225.5031 
 1890000   -200737.13     1.789957 0.0019595732    65.241799    4238.2453 
 1895000   -200724.61    1.8215673 -0.00095117928     65.28339     4251.041 
 1900000   -200565.84    1.8402918 -0.0013292333    65.335887    4263.8894 
 1905000   -200516.86    1.8003602 0.0017792992    65.268492    4276.6877 
 1910000    -200546.4    1.8523657 -0.0017107859    65.379915     4289.438 
 1915000   -200348.61    1.7848569 0.0037966032    65.342509    4302.2271 
 1920000   -200623.18    1.7413679 -0.00081831897    65.384182    4315.0128 
 1925000   -200626.89    1.8043176 0.00058158794    65.320366    4327.8426 
 1930000   -200470.23    1.8126898 -0.00091264929    65.409973    4340.6146 
 1935000   -200645.65    1.8053448 -0.00047979874    65.241102    4353.4068 
 1940000    -200855.8    1.7598665 0.0031422772    65.156146    4366.2546 
 1945000   -200821.61    1.7914859 0.0070858478    65.089455    4379.0317 
 1950000   -200636.89    1.8459377 -0.00010943458    65.242812    4391.8876 
 1955000   -200638.37    1.8101605 -0.0045142217    65.203779    4404.6863 
 1960000   -200445.11    1.8032379 0.0037770941    65.068038    4417.5369 
 1965000   -200553.61    1.8273067 -0.0035414513    65.290533    4430.3674 
 1970000   -200610.02    1.8160893 -0.0050302709    65.235291    4443.2123 
 1975000   -200459.21    1.7909597 0.0045276092    65.091081    4456.0511 
 1980000   -200575.55    1.8102561 -0.00078280902    65.138429    4468.9015 
 1985000   -200619.48    1.8507005 0.0012028102    65.086178    4481.7443 
 1990000   -200570.98    1.8039688 2.4040065e-05    65.173446    4494.5303 
 1995000   -200649.73    1.7687412 -9.3841871e-05    65.130025    4507.3627 
 2000000   -200662.22    1.8213575 0.0035848761    65.042449    4520.1282 
 2005000   -200546.19    1.8029459  0.001318853    65.103491    4532.9334 
 2010000   -200717.43     1.790188 0.0021391072    65.140043    4545.7447 
 2015000   -200753.56    1.8192583 0.00019560525    65.240168    4558.5425 
 2020000   -200746.65    1.7978137 0.0026602631    65.195215    4571.3264 
 2025000   -200767.49    1.7832739 -0.0016800252    65.230605    4584.0972 
 2030000   -200572.78    1.7382945 -0.0025407476    65.309096    4596.8866 
 2035000   -200687.23    1.8650291 -0.00069558786    65.206731    4609.6789 
 2040000   -200656.35    1.7924298  0.002625478    65.176697    4622.4816 
 2045000   -200605.58    1.7874129 0.0034168934    65.164134    4635.2768 
 2050000   -200586.22    1.8145721 -0.00091575929    65.230395    4648.0924 
 2055000   -200443.42    1.7482898 -0.0068924216    65.337296    4660.8939 
 2060000   -200488.35    1.7513999 -0.0040134066    65.264742    4673.6875 
 2065000   -200630.29    1.7857439 -0.0046173282    65.331563    4686.4589 
 2070000   -200627.34    1.8541338 0.00083479671    65.221333    4699.2314 
 2075000   -200396.92    1.8466862 0.0013083123    65.316506    4711.9804 
 2080000   -200668.18    1.7279914 -0.0041418621    65.377735    4724.7531 
 2085000   -200542.71    1.8078794 -0.0010412901    65.399316    4737.5125 
 2090000    -200507.6    1.7943995 -0.0017199219    65.403316    4750.2696 
 2095000   -200508.01    1.8010931 -0.0033431703    65.432793    4763.0429 
 2100000   -200752.03    1.8198842 0.00013540334    65.180974    4775.8538 
 2105000   -200608.87    1.8131535 -0.0023509865    65.315156     4788.685 
 2110000   -200823.54    1.7537687 0.0019080393    65.154712    4801.4902 
 2115000   -200529.87     1.755701 -0.0011030345    65.275413    4814.2961 
 2120000   -200682.86      1.81283 0.0033451068    65.264822    4827.1073 
 2125000   -200763.07    1.8037096 -0.00065705553    65.251953    4839.9355 
 2130000   -200706.37    1.7788037 -0.0028219488    65.279316    4852.7755 
 2135000   -200612.47    1.8257653 0.0011563716    65.242615    4865.5633 
 2140000   -200619.29    1.8095359 -0.0030773028    65.241931    4878.3933 
 2145000   -200649.12    1.8277948  0.003939726    65.248454    4891.2451 
 2150000   -200643.96    1.8817812 0.0010307446    65.295282     4904.026 
 2155000   -200549.39    1.8179236 0.00024478438    65.396036    4916.7828 
 2160000   -200528.21    1.7544422 0.00028713497    65.444853    4929.5599 
 2165000   -200554.88    1.7589286 0.0010851521    65.421874    4942.3409 
 2170000   -200550.03    1.7833141 -0.002817168    65.472953    4955.1128 
 2175000   -200628.46    1.7263329 -0.003073991    65.505825    4967.8829 
 2180000   -200456.71    1.8520662 -0.0021386985    65.516473    4980.6572 
 2185000   -200579.24     1.806106 -0.00084518388    65.395696    4993.4607 
 2190000   -200426.46    1.8230625 -0.0034907971     65.43824    5006.2502 
 2195000   -200504.78    1.8157135 0.0044172262    65.349582    5018.9868 
 2200000   -200557.01      1.80843 -0.0020768344    65.408758    5031.7579 
 2205000   -200506.84    1.8232201 -0.00032275156    65.413631    5044.5292 
 2210000   -200431.92    1.8134313  -0.00126152    65.330182    5057.3347 
 2215000   -200513.03    1.8180359 -0.0042203796    65.419989    5070.1688 
 2220000   -200628.44    1.8508229 -0.00032311212    65.370232    5082.9754 
 2225000    -200524.2    1.8293136 0.0051949105    65.311327    5095.7461 
 2230000   -200479.74    1.8027689 -0.00046918176    65.455885    5108.4939 
 2235000   -200741.11     1.751195 0.0019336058    65.225241    5121.2986 
 2240000   -200592.73    1.7887895 -0.0029965496    65.291201    5134.1132 
 2245000   -200545.01    1.7697794  0.001083875    65.217251    5146.9384 
 2250000   -200535.76    1.7743171 -0.0038257406    65.374158    5159.7371 
 2255000   -200660.01    1.7973331 -0.0041084386    65.291148    5172.5501 
 2260000   -200590.24    1.8105369 -0.0006813031    65.264648     5185.345 
 2265000   -200757.19    1.7831137 -0.0084212317    65.320955    5198.1638 
 2270000   -200686.11    1.8047995 0.0011792351    65.175348      5210.99 
 2275000   -200673.24    1.8358865 0.0026947339    65.108437    5223.7579 
 2280000   -200541.87      1.79726 -1.186816e-05    65.231722    5236.5439 
 2285000   -200609.93    1.8391859 0.0024710024    65.264623    5249.3359 
 2290000   -200710.15    1.8494266 0.0053823472     65.22335    5262.1385 
 2295000   -200974.93    1.8119623  0.007059568    65.011243    5274.9355 
 2300000   -200746.21    1.8388613 -0.0048323516    65.208298    5287.7326 
 2305000   -200511.56      1.78624 -0.0026563691    65.291523    5300.5326 
 2310000   -200435.62    1.8164154 -0.0011177854    65.283015    5313.3215 
 2315000   -200544.84    1.7337647 -0.0032382975     65.28843     5326.148 
 2320000   -200391.62    1.7840425 -0.0049846788    65.352463    5338.9363 
 2325000   -200607.92    1.8184363 0.00082036155    65.195053    5351.7306 
 2330000   -200510.77    1.8210132 -0.0009172625     65.30953     5364.541 
 2335000   -200860.55    1.7963628 -0.0005894758    65.232872    5377.3578 
 2340000   -200529.38    1.7605192 0.0023764231    65.287591    5390.1772 
 2345000   -200415.87    1.8117781 -0.0032506688    65.338065    5403.0495 
 2350000   -200527.93    1.7710814 -0.0014685002    65.338629    5415.8671 
 2355000   -200400.67    1.7860122 -0.0007017713    65.325923    5428.6554 
 2360000   -200567.42    1.8543467 0.0016782015    65.249145    5441.4279 
 2365000   -200422.46    1.8118235 -0.0016035012    65.351475    5454.2081 
 2370000   -200643.88     1.741053 -0.00066932166    65.324376    5467.0281 
 2375000   -200539.59    1.8246771 -0.0015653489    65.307271    5479.8191 
 2380000   -200493.46    1.8574668 0.0029432462    65.295659    5492.6292 
 2385000   -200533.43     1.855878 0.0039377896    65.281468    5505.3974 
 2390000   -200680.76    1.8223919 -0.00095403729    65.402924    5518.1813 
 2395000   -200504.44    1.8369773 -0.0045796692     65.39712    5530.9747 
 2400000   -200620.07     1.771975 -0.0039802352    65.432585      5543.78 
 2405000    -200712.8    1.7756373 -0.0024445178    65.490515    5556.5823 
 2410000   -200565.84    1.7542182 0.0025094993    65.380512    5569.3738 
 2415000   -200678.69    1.8534963 -0.0015428711    65.408106    5582.1811 
 2420000   -200606.59    1.7579268 -0.0014152858    65.322764    5594.9782 
 2425000   -200780.67    1.7775671 0.0035084076    65.270204    5607.7344 
 2430000   -200626.97    1.8119694 -0.001012833    65.501917    5620.4795 
 2435000   -200735.99    1.7797723 -0.0020915218    65.506246    5633.2939 
 2440000   -200758.63    1.7769784 -0.0005586375     65.42435    5646.0761 
 2445000   -200633.35    1.8145864 0.0041137551    65.375274    5658.8451 
 2450000   -200704.92    1.8035681 0.0018779842    65.324858    5671.6297 
 2455000   -200613.39     1.814539 -0.0044963873    65.494245    5684.3717 
 2460000   -200841.89    1.7749766 0.0037428804    65.296204    5697.1395 
 2465000   -200657.12    1.8043634 -0.0016743081    65.434807    5709.8689 
 2470000    -200785.1    1.7706145 0.0024001513    65.211036    5722.6258 
 2475000   -200589.41    1.7520421 -0.0012321846    65.341617    5735.3797 
 2480000   -200692.37    1.8032867 -0.0048622054     65.39055    5748.1769 
 2485000   -200705.29    1.8527649 0.00012157738    65.314066     5760.937 
 2490000    -200756.2    1.7891978 -0.0042765643    65.284734     5773.731 
 2495000    -200562.5     1.743196 -0.0011042925    65.226659    5786.5561 
 2500000   -200628.93    1.8078844 -0.00015861398    65.171253    5799.3577 
 2505000   -200479.74    1.8080285 0.00059282672    65.270293    5812.1346 
 2510000   -200609.92    1.7749294 -0.0019115721     65.33897    5824.8921 
 2515000   -200587.28    1.7484142 0.00054765754    65.255709     5837.682 
 2520000   -200731.88    1.7736017 -0.0031515889    65.322949    5850.5042 
 2525000   -200670.99    1.7470492 -0.00015021476    65.249152    5863.2794 
 2530000   -200705.69    1.7576166 -0.0003809453    65.219743    5876.1072 
 2535000   -200754.73    1.7721794 0.0039883679    65.149626    5888.9619 
 2540000   -200630.04     1.812441 0.0028773578     65.17869    5901.7931 
 2545000   -200743.96    1.8414713 0.0033546734    65.135881    5914.6032 
 2550000   -200709.45    1.7802966 0.0077961621    65.111477    5927.4004 
 2555000   -200650.09    1.8415736 0.0012664614     65.26366    5940.1884 
 2560000   -200595.02    1.8066523 -0.0021157254    65.281957    5952.9839 
 2565000   -200577.16    1.7778501 -0.0017212104    65.329955    5965.7893 
 2570000   -200472.22    1.8073586 -0.0021227196    65.364447    5978.5967 
 2575000   -200703.36    1.7755211 0.0018069347    65.145017    5991.4186 
 2580000   -200734.31    1.7782575 -0.00026408945    65.206784    6004.2168 
 2585000   -200683.12    1.7621946 -0.0015605489    65.156227    6017.0024 
 2590000   -200705.68    1.8649123  0.003394129    65.047376    6029.8158 
 2595000   -200626.33    1.7537072 0.0019955247    65.152147    6042.6544 
 2600000   -200623.01    1.8586491 0.0053186421     65.05475    6055.4622 
 2605000   -200599.18    1.8016262 -0.0025969438    65.130573    6068.3128 
 2610000   -200499.01     1.822229 -0.0024353003    65.133706    6081.1534 
 2615000   -200435.16    1.7506617 -0.0013541316    65.155369    6093.9616 
 2620000   -200487.18    1.8194792 0.0013784765    65.100294     6106.757 
 2625000   -200489.12     1.775391 0.0024787281    65.037341    6119.5862 
 2630000   -200665.69    1.7998376 -0.0015281699    65.002195    6132.4195 
 2635000   -200458.05     1.774146 0.0002660899    65.143634    6145.2091 
 2640000   -200515.06    1.7808307 -0.0021983601    65.123456    6158.0456 
 2645000   -200544.25    1.7671375 -0.0039171942    65.219845    6170.8443 
 2650000   -200557.05    1.7131245 0.0027925772     65.07705     6183.652 
 2655000   -200442.97    1.8002494 0.00079849589    65.127747    6196.4434 
 2660000   -200510.48    1.8448601 0.0014796464    65.276074    6209.2347 
 2665000   -200827.16    1.7844681 0.00068964558    65.182648    6222.0822 
 2670000   -200801.43    1.7681697 0.0024691605    65.055392    6234.8853 
 2675000   -200704.27    1.7627719 0.0012885079    65.252389    6247.6551 
 2680000   -200541.81    1.7172836 -0.0026887728    65.169401     6260.449 
 2685000    -200536.4    1.7837098 -0.0034321808    65.168693    6273.2317 
 2690000   -200513.44     1.811391 0.0018211959    65.180637    6286.0686 
 2695000   -200672.09    1.8316207 0.00047624689    65.149084    6298.8628 
 2700000   -200742.58    1.7811698 -0.0065438242    65.125573    6311.7163 
 2705000   -200662.43    1.8049097 0.0044560166    65.122888    6324.5244 
 2710000   -200628.01     1.816237 -0.0036074136    65.254324    6337.3669 
 2715000   -200870.47    1.7801389 0.0058159738    65.013886    6350.1386 
 2720000   -200875.26    1.8296557 0.0010730075    65.133779    6362.9478 
 2725000   -200993.26    1.8246342 0.00086073677    65.155349    6375.7584 
 2730000   -200733.38    1.7545817 -0.0010549629    65.154156    6388.6024 
 2735000   -200600.69    1.7704369 -0.0018719269    65.239508    6401.3671 
 2740000   -200753.79    1.8111985 -0.0024767666    65.277723    6414.1537 
 2745000   -200495.07    1.7933404 -0.0017834403    65.332213    6426.9394 
 2750000   -200533.97     1.747665 -0.00099384205    65.306086    6439.7275 
 2755000   -200472.54    1.7909749 -0.0033943789    65.323263    6452.5007 
 2760000   -200528.68    1.8223082 -0.0069173667     65.36565    6465.3288 
 2765000   -200510.43    1.8247937 -0.0017847331    65.265136    6478.1903 
 2770000   -200629.55    1.7387207 0.0017797152    65.150822    6491.0278 
 2775000   -200544.95    1.8855308 -0.0012455007    65.217763    6503.8917 
 2780000   -200661.86    1.7706337 0.0015510128    65.109041     6516.712 
 2785000   -200600.43     1.796338 0.00029917015    65.115532    6529.4874 
 2790000   -200560.47     1.829239 0.0018491527    65.177518     6542.285 
 2795000   -200650.29    1.8426176 -0.0015176429    65.163065    6555.0902 
 2800000   -200599.06    1.8159586 0.0023626388    65.173879    6567.8487 
 2805000   -200648.64    1.7708164 -0.0034617572    65.289987    6580.5975 
 2810000   -200475.89    1.7900927 -0.0033333622    65.261535    6593.4225 
 2815000   -200573.79    1.8067005 0.0013459855    65.216959    6606.2276 
 2820000   -200773.73    1.8297958 -0.003339045    65.237643    6619.0122 
 2825000    -200542.9    1.8259722 0.0014598714    65.236854    6631.8201 
 2830000   -200591.24    1.7945663 -0.0015910216      65.3738    6644.6118 
 2835000   -200814.12     1.746487 -0.0017073607    65.259183    6657.4094 
 2840000   -200801.19     1.761703 -0.00079755645    65.244075    6670.2017 
 2845000   -200606.65    1.7963192 -0.0019045511     65.28605    6682.9954 
 2850000   -200767.89    1.7676741 0.0020218971    65.288026    6695.7746 
 2855000   -200636.69    1.7961847 0.0027805259    65.338819    6708.5292 
 2860000   -200581.92     1.775198 0.0014628501    65.297725    6721.3069 
 2865000   -200486.41    1.8680396 -0.0015183524    65.386179    6734.1221 
 2870000   -200478.12     1.834083 0.0046805778     65.36533    6746.8986 
 2875000   -200488.14     1.793012 0.0067593025     65.26014    6759.6942 
 2880000   -200673.48    1.7861048 0.0001876473    65.367677    6772.4884 
 2885000   -200442.87    1.7976121 -0.00071212017    65.395105    6785.2182 
 2890000   -200609.03    1.8360347 -0.0018778866    65.318972    6797.9954 
 2895000    -200698.3    1.8096136 -0.0046456871    65.347629    6810.7629 
 2900000    -200352.8    1.7778806 0.00021340056    65.344881    6823.5557 
 2905000   -200665.59    1.7786113 0.0035455978    65.296965    6836.3485 
 2910000   -200640.05    1.8175276 0.0039057368    65.325341    6849.1434 
 2915000   -200494.67    1.7945217 0.00068135923    65.345089    6861.9099 
 2920000   -200471.85    1.8005696 -0.0008691592    65.409527    6874.6858 
 2925000   -200440.32     1.822628 -0.00056749146    65.345263    6887.5195 
 2930000   -200483.45     1.781936 -0.0006193643    65.366527    6900.2763 
 2935000   -200636.62    1.8318255 0.0056556473    65.375188    6913.0586 
 2940000   -200496.78    1.7640464 0.0013649268    65.493329    6925.8468 
 2945000   -200610.63    1.7523581 -0.0051197823    65.559312    6938.6343 
 2950000   -200645.25    1.8496933 0.00043829985    65.369933    6951.4504 
 2955000   -200665.57    1.7814903 -0.00020480592    65.347642    6964.2313 
 2960000   -200619.48    1.7294013 -0.0028179249    65.289685    6977.0305 
 2965000   -200526.08    1.7664707 -0.0020114151    65.340127    6989.8348 
 2970000   -200429.69     1.809313 -0.001631427    65.278255    7002.6332 
 2975000   -200582.59     1.790127 0.00092632054    65.320112    7015.3974 
 2980000   -200389.09     1.799401 -0.0086018787    65.407388    7028.1864 
 2985000    -200668.8    1.7995966  0.005732167    65.177448    7041.0026 
 2990000   -200455.59     1.877732 0.0034189091    65.199538    7053.7806 
 2995000   -200329.71    1.8107332 -0.0026416776    65.313478    7066.5899 
 3000000   -200547.39    1.8025904 0.0012589138    65.152536    7079.3805 
 3005000   -200490.06    1.7775614 0.0006062657    65.155147    7092.1444 
 3010000   -200648.33    1.7722388 -0.0028826229    65.196108    7104.9107 
 3015000   -200626.24    1.8233014 0.00021740846    65.034074     7117.737 
 3020000   -200627.89    1.8306641 -0.0016305518      65.1217    7130.5728 
 3025000   -200694.37    1.7965764  0.004336099     64.98966    7143.3722 
 3030000    -200440.7    1.8333802 -0.0027444783    65.098586    7156.1242 
 3035000   -200485.87     1.775112 -0.0037249528    65.175699    7168.9226 
 3040000   -200527.41    1.8050393 0.0015784705    65.039381    7181.7434 
 3045000   -200652.37    1.7935758 0.0034981802    64.942129    7194.5486 
 3050000   -200413.33    1.7940199 -0.0017991881    65.042445    7207.3814 
 3055000    -200687.5    1.7627578 0.00071230941    64.962483     7220.183 
 3060000   -200689.71    1.8083467 -0.0048331641    65.088723    7233.0042 
 3065000   -200643.11    1.8116477 -0.0036773797    64.999009    7245.8269 
 3070000   -200536.68    1.8517952 -0.0004546418    65.028065      7258.65 
 3075000   -200478.07     1.821379 0.0026473571    65.026346    7271.4501 
 3080000   -200657.98    1.7752577 -0.0046412186    65.074723    7284.2617 
 3085000   -200678.36    1.7927318 -0.00018035287    65.020994    7297.0852 
 3090000   -200492.74    1.7713011 -0.0033729579    65.194371    7309.9052 
 3095000      -200608    1.8214217 0.0014875343    65.088149    7322.6938 
 3100000   -200587.97    1.8383281 -0.0046347455    65.153885    7335.5398 
 3105000    -200593.4    1.8164316 -0.00064785533    65.154986     7348.363 
 3110000   -200583.25    1.7934521 0.0027567239    65.112278    7361.1583 
 3115000   -200486.49    1.8351051 0.0038495355    65.148966    7374.0122 
 3120000   -200571.19    1.8177242   0.00182947    65.151077     7386.847 
 3125000   -200561.52    1.7805196 0.00051171389    65.093561    7399.6819 
 3130000   -200643.15    1.8200645 -0.0026757903    65.205736    7412.4646 
 3135000    -200507.9    1.8286034 -0.0019561557    65.102264    7425.3055 
 3140000   -200641.24     1.761015 -0.0012573492    65.148373    7438.1347 
 3145000   -200667.88    1.7721639 -0.0037146915    65.252418    7450.9258 
 3150000   -200780.66    1.7880656 0.0047764161    65.113877    7463.7198 
 3155000   -200848.76    1.8388651 -9.9778755e-05     65.13498    7476.5558 
 3160000   -200724.17    1.7806202 -0.0032346443    65.168742    7489.3846 
 3165000   -200739.66    1.8256014 -0.00073848651    65.168478    7502.2338 
 3170000   -200499.48    1.7986074 -0.00042455731    65.244565    7515.0568 
 3175000   -200565.61    1.8236641 -0.0047966075    65.331593    7527.9065 
 3180000   -200662.57    1.8114735 -0.0017773302     65.15657    7540.7323 
 3185000   -200510.05    1.8416797 -0.005466749    65.271953    7553.5832 
 3190000   -200579.27    1.8090064 0.0016210161    65.144456     7566.434 
 3195000   -200523.44      1.80463 -0.00037191113    65.128782    7579.2709 
 3200000   -200685.16    1.7548169 -0.001984971    65.143629    7592.0905 
 3205000   -200571.92     1.802321 -0.0064799462    65.274514    7604.9314 
 3210000   -200495.28    1.7548184 0.0045159368    65.198608     7617.725 
 3215000   -200715.65    1.8422526  -0.00180728    65.313946    7630.5273 
 3220000   -200592.44    1.8224773 0.00095087298    65.219191    7643.3505 
 3225000   -200646.57    1.7479536 -6.5397171e-05    65.286024    7656.1693 
 3230000   -200374.53     1.739257 0.0011244046     65.36281    7668.9377 
 3235000   -200385.65      1.81774  0.003065539    65.339837     7681.714 
 3240000    -200612.8    1.8301414 0.0039329294    65.258184    7694.5148 
 3245000    -200745.8     1.826049  0.001412691    65.321531    7707.2995 
 3250000   -200633.06    1.7693844 -0.0024424993    65.314354    7720.0956 
 3255000   -200705.79    1.7750452 -0.0021351424    65.271555    7732.9142 
 3260000   -200548.83    1.7445586 -4.9612178e-05    65.258694    7745.7317 
 3265000   -200648.14    1.7759549 3.9867813e-05    65.190256    7758.5191 
 3270000   -200691.62    1.7616275 6.0265144e-06    65.084357    7771.3443 
 3275000    -200652.7    1.7927507 0.00099758816    65.183513    7784.1732 
 3280000   -200466.22      1.77579 -0.0013809219    65.247757    7796.9745 
 3285000    -200666.2    1.7990698 -0.0017913928    65.217587    7809.7765 
 3290000   -200426.67    1.8077481 -0.0044435985    65.384286    7822.6055 
 3295000   -200540.98    1.8156108 0.0012182851    65.238528    7835.4058 
 3300000    -200735.8    1.7868323 0.0023646877    65.248807     7848.237 
 3305000   -200489.16    1.7821248 -0.0053769715    65.430403    7861.0108 
 3310000   -200657.86    1.7371261 -0.0048974488    65.361563    7873.8585 
 3315000   -200566.19    1.7728964 -0.0031775173    65.470611    7886.6526 
 3320000   -200715.19    1.8265852 -0.00051317465    65.445186    7899.4403 
 3325000   -200781.71    1.7474018 0.00014260789    65.415184    7912.2174 
 3330000   -200664.01    1.8439774 -0.0019573275    65.315305    7925.0244 
 3335000   -200559.01    1.7889033 0.0050131836    65.267854    7937.8458 
 3340000   -200632.68    1.8002606 -0.0003842989    65.409405    7950.6652 
 3345000   -200608.63    1.8209536 0.0037935391    65.265919    7963.4812 
 3350000   -200603.22     1.781361 0.0012264572    65.320878    7976.2669 
 3355000   -200638.93    1.8629613 -0.0027025486     65.38326    7989.0637 
 3360000   -200581.39     1.762418 -0.0050727967    65.423419    8001.8664 
 3365000   -200632.56    1.7698244 -0.0016451535    65.319214    8014.6658 
 3370000   -200609.43    1.7827744 -0.0010350576    65.175572    8027.5016 
 3375000   -200555.81    1.8209773 -0.00051797834    65.232753    8040.2999 
 3380000    -200530.8    1.8652918 -0.0035557071    65.308233    8053.1316 
 3385000    -200656.2    1.8019576 0.0062642095    65.103725    8065.9566 
 3390000   -200522.56    1.8128348 -0.00054291111    65.274955    8078.7845 
 3395000   -200741.08     1.819332 -0.0020523037    65.269298    8091.6123 
 3400000   -200651.17    1.8125605 -0.0054615468    65.354497    8104.3953 
 3405000   -200739.02    1.7959405 0.00058156458    65.305157    8117.2357 
 3410000   -200558.35    1.8546724 -0.0028366062    65.413282    8130.0598 
 3415000    -200511.5    1.7788035 -0.0038304124    65.429215     8142.831 
 3420000   -200748.22    1.7755922 0.0035938429    65.242568    8155.6331 
 3425000   -200552.21    1.7584007 8.7491878e-05    65.339997    8168.4363 
 3430000   -200606.09    1.7409795 0.0035646934    65.225964    8181.2278 
 3435000   -200387.22    1.7570812 -0.0013311235    65.291432    8194.0246 
 3440000   -200460.53    1.7801592 -0.003684139    65.321477    8206.7999 
 3445000   -200609.77    1.8126296 -0.0017295812    65.312237    8219.5608 
 3450000   -200540.89    1.8479463 0.0048268662    65.224865    8232.3716 
 3455000   -200504.48     1.802447 -0.0030169639    65.263472    8245.1811 
 3460000   -200560.23    1.8589775 0.0010015987    65.176602    8257.9819 
 3465000   -200620.59    1.7812507 -0.0027257515    65.238172    8270.7833 
 3470000   -200480.34    1.8458696 0.0012114975    65.308738    8283.5687 
 3475000   -200557.71     1.824464 0.0014966043     65.24001    8296.3638 
 3480000   -200485.96    1.7758165 0.0035169541    65.239137    8309.1795 
 3485000    -200372.1     1.833901 0.0051911054    65.216652    8321.9628 
 3490000   -200479.06    1.7694339 -0.0017439052    65.281899    8334.7732 
 3495000   -200457.11    1.8374975 -0.0017932813    65.260691    8347.6018 
 3500000   -200679.86    1.8139909 0.0020691304    65.025121    8360.4191 
 3505000   -200385.43    1.7945845 -0.0030671719      65.2026    8373.2277 
 3510000   -200488.75    1.7899118 -0.0010052309    65.153977    8386.0451 
 3515000   -200375.79    1.7960692 -0.0008497713    65.133079    8398.8741 
 3520000   -200572.77    1.7623944 0.00097289792    65.117358    8411.7145 
 3525000    -200603.8    1.7866231 -0.0011733908    65.167935    8424.5547 
 3530000    -200433.3    1.8330967 0.0012687144    65.098335     8437.366 
 3535000   -200606.03    1.7606969 -0.0011812248    65.104874    8450.1503 
 3540000   -200558.02    1.7933722 0.0009784929    65.008464     8462.956 
 3545000   -200648.28    1.7895096 0.00050915032    64.991053    8475.7876 
 3550000   -200694.21    1.7618564  0.002183214    65.000206      8488.59 
 3555000   -200595.16    1.8464695 -0.00077138865     65.07592    8501.4295 
 3560000   -200616.44    1.8039167 0.0018184683    64.989938    8514.2887 
 3565000   -200628.13    1.7929603 -0.0036136455    65.210233    8527.1453 
 3570000   -200612.03    1.7545476 -0.0017219316    65.134983    8539.9316 
 3575000   -200646.19    1.8419429 0.0021131501     64.99295    8552.7725 
 3580000   -200459.53    1.8415372 -0.0031586296    65.154248    8565.5979 
 3585000   -200506.87    1.8011588 -0.0007704708    65.117162    8578.4047 
 3590000   -200642.82    1.7884545 0.0042112214    64.980875    8591.2543 
 3595000   -200625.95    1.8381475 0.0063301215     64.90574    8604.1206 
 3600000   -200478.77    1.7947397 -0.0065268581    65.177229    8616.9865 
 3605000   -200586.33    1.7677501 0.0038328897    65.017667    8629.8287 
 3610000   -200478.04    1.7871493 -0.00019397289    65.143988     8642.676 
 3615000   -200619.22    1.8020868 0.0056764973    64.929093    8655.5031 
 3620000   -200708.56    1.7757175 0.0051260053    64.990983    8668.3401 
 3625000    -200727.8    1.8203445 0.0024516217    64.989066    8681.1808 
 3630000    -200614.4    1.7371421 -0.00019289669    65.133717    8694.0361 
 3635000   -200616.65    1.7743927 0.0032589239    65.085753    8706.8872 
 3640000   -200610.69    1.8381432 0.00031718035     65.17027    8719.6969 
 3645000   -200833.28    1.8198608 0.0024820602    65.133632    8732.5045 
 3650000   -200370.53     1.804125  0.001557804    65.205539    8745.2769 
 3655000   -200570.84    1.8504497 0.00017535311    65.058464    8758.0471 
 3660000   -200531.81    1.7866136 0.0044503002    65.030925    8770.9056 
 3665000   -200650.66    1.8185667 -0.00055303072    65.144691    8783.7426 
 3670000   -200608.63    1.8057678 -0.0034986511    65.209053    8796.5617 
 3675000   -200463.05    1.7230308 -0.0021784658    65.264797    8809.3768 
 3680000   -200545.49    1.7483354 -0.0036258315    65.291857    8822.1692 
 3685000    -200708.3    1.7616302 6.8943408e-05    65.118772    8834.9286 
 3690000   -200512.76    1.8119635 -0.0010752066    65.277301    8847.7072 
 3695000   -200317.49    1.8125643 -0.0047270272    65.378295    8860.5124 
 3700000   -200478.28    1.7999211 -6.4379849e-05    65.273037    8873.2851 
 3705000   -200536.16     1.818392 0.0014828225    65.271307    8886.0787 
 3710000   -200596.81     1.813193 -0.001435556    65.357057    8898.8376 
 3715000   -200599.39    1.8279751 0.00078360842    65.284814    8911.6334 
 3720000   -200590.19    1.7865037 -0.0060721576    65.318453    8924.4118 
 3725000   -200632.12    1.7531112 -0.004075795    65.293066     8937.236 
 3730000   -200395.04    1.8069946 0.0053100334    65.357234    8950.0283 
 3735000   -200500.94     1.729167 -0.00073397272    65.397152    8962.8033 
 3740000    -200448.4    1.8228697 0.0033527717    65.296857    8975.5937 
 3745000   -200554.51    1.7864372  0.001031413    65.295835    8988.4152 
 3750000   -200730.91    1.7701884 0.0011156542    65.174166    9001.1665 
 3755000   -200544.23    1.8071784 0.00048765709    65.273036    9013.9542 
 3760000   -200574.97    1.8151256 0.0031957106    65.224464    9026.7245 
 3765000   -200520.59    1.8116954  0.004480114    65.251413    9039.5348 
 3770000   -200621.73    1.8165916 -0.00080314264    65.261694    9052.3018 
 3775000   -200553.44    1.7997314 -0.0017446024    65.252382    9065.1022 
 3780000   -200582.26    1.8339695 -0.0010660881    65.254767    9077.9116 
 3785000   -200637.54    1.7874305 0.0041301552    65.166526    9090.7144 
 3790000   -200503.26     1.814693 0.0043813768    65.196994    9103.5579 
 3795000   -200575.47    1.8621983 0.0053240135    65.168464    9116.3628 
 3800000   -200429.98    1.8255178 0.0046856903    65.221426    9129.1615 
 3805000   -200576.21    1.8611873 0.0065181461    65.127756    9141.9656 
 3810000   -200325.28    1.8088662 0.00091205319    65.288811    9154.7984 
 3815000      -200307    1.7601153 -0.0061413976     65.28009    9167.6002 
 3820000   -200633.31    1.7670577 0.0039951564    65.067356    9180.4502 
 3825000   -200584.92    1.7761419 -4.0474321e-05    65.199903    9193.2276 
 3830000    -200522.9    1.7929564 -0.0046823863    65.319493    9206.0082 
 3835000   -200684.21     1.796952 -1.5244853e-05    65.217374    9218.8407 
 3840000   -200564.05    1.8091905 1.0837483e-05    65.203124    9231.6595 
 3845000   -200596.02    1.8097123 -0.0014348266     65.27708    9244.4537 
 3850000   -200304.01    1.7503809 -0.0013068579    65.266271    9257.2451 
 3855000   -200485.89     1.757855 -0.0025094547    65.236985    9270.0739 
 3860000   -200422.38    1.7570498 3.804839e-06     65.12441     9282.911 
 3865000   -200491.07    1.8386542 -0.0027123269      65.1982    9295.7604 
 3870000   -200562.61    1.7443187 0.00011236086    65.091442    9308.5917 
 3875000   -200476.15    1.8050535 0.00069817966    65.097787    9321.4211 
 3880000   -200602.95    1.7524743 -0.0039316178    65.171844    9334.2636 
 3885000   -200684.95    1.7720568 -0.0039076069    65.160599    9347.0948 
 3890000   -200639.92     1.835446 0.00061394241    65.154214    9359.9343 
 3895000   -200574.51    1.8005761 0.0013383245    65.135536    9372.7695 
 3900000   -200550.49    1.8522799 -0.0020455437    65.146786    9385.5787 
 3905000   -200639.41    1.8576733 0.0006350216    65.052539    9398.3784 
 3910000   -200474.64    1.7963619 0.00040224624    65.128085    9411.1989 
 3915000   -200372.12    1.7680612 -0.00069715104    65.247396    9424.0162 
 3920000   -200624.39    1.8276363 0.0013859484    65.196162    9436.8326 
 3925000   -200675.04    1.7937935 0.0033206998    65.142319    9449.6242 
 3930000   -200765.95    1.8037609 -0.00067984948    65.187121    9462.4248 
 3935000   -200680.54     1.782684 0.0024432816    65.135179    9475.2224 
 3940000   -200713.27    1.7819847 0.0022199442    65.214977    9488.0145 
 3945000   -200735.45    1.8186003 0.0032144855    65.086427    9500.8257 
 3950000   -200828.31    1.8284963 0.00033035654    65.124725    9513.6264 
 3955000   -200988.72    1.7979902 0.0011125657    65.015365    9526.4156 
 3960000   -200681.33    1.8460594 -0.0019053742    65.067526      9539.22 
 3965000   -200488.99    1.7697078 0.00077295386    65.151015    9552.0428 
 3970000    -200799.6    1.7867732 -0.0025724484    65.079538    9564.8581 
 3975000   -200681.78    1.7537698 0.00037082656    65.105574     9577.684 
 3980000   -200713.89     1.827797 0.0010183088    65.192646    9590.5126 
 3985000   -200481.44    1.8045306 -0.002843397    65.243203    9603.3452 
 3990000    -200493.9    1.8355147 -0.00016551446    65.226953    9616.1433 
 3995000   -200673.11    1.8420062 0.0047428841    65.174179    9628.9327 
 4000000    -200723.3    1.8034438 3.8064164e-06    65.301452    9641.7702 
 4005000   -200632.65    1.8457542 0.0039484468    65.213015    9654.5886 
 4010000   -200581.25    1.8229453 -0.0031829002    65.391258    9667.3804 
 4015000   -200753.48    1.7441349 0.0027440158    65.317521    9680.1388 
 4020000   -200541.43    1.8260534 -0.0014678572    65.400058    9692.9556 
 4025000    -200468.5     1.839029 0.0032283465    65.374661    9705.7308 
 4030000    -200592.7    1.8221302  0.005628663    65.297085    9718.5166 
 4035000   -200554.75    1.8417531 0.00026577271    65.388494    9731.2949 
 4040000   -200492.29    1.7709658 -0.003821602    65.385672    9744.0992 
 4045000   -200596.02    1.8006116 -0.0025210186    65.429467    9756.8904 
 4050000   -200744.09    1.8193231 -0.0037473678    65.321833    9769.6161 
 4055000   -200642.73    1.8740757 0.0026848963    65.190878    9782.4081 
 4060000   -200633.94    1.7531638 -0.002355752    65.225578    9795.1779 
 4065000   -200442.65    1.7705576 -0.0024308362    65.284736    9807.9655 
 4070000   -200618.76    1.8486589 -0.002279946    65.308162     9820.764 
 4075000   -200500.84     1.843634 0.0010456494    65.205579    9833.5506 
[...]
 9085000   -200713.52    1.8118392 -0.0032312121    65.438282    22655.093 
 9090000   -200429.65    1.7895431 8.6924588e-05    65.477764    22667.898 
 9095000   -200669.35    1.8215173 0.00073249212     65.39164    22680.654 
 9100000   -200514.95    1.8156389 0.0025590475     65.31117     22693.43 
 9105000    -200534.6    1.7445918 -0.00082451012    65.280671      22706.2 
 9110000   -200786.78    1.7347854 -0.004905261    65.284032    22718.984 
 9115000   -200650.22     1.780253 -0.0031541154    65.247656    22731.808 
 9120000   -200833.81    1.7770898 0.00028504072    65.307309    22744.566 
 9125000   -200474.74    1.8264658 0.00019744826    65.426866    22757.361 
 9130000   -200679.83    1.8052236 0.00084811302    65.314086    22770.163 
 9135000   -200651.88    1.8499451 0.00045064761    65.249001    22782.937 
 9140000   -200796.99    1.7828732 0.0040443966    65.181334     22795.75 
 9145000   -200511.28    1.8017841 -0.0026509423    65.352508    22808.563 
 9150000   -200636.41    1.8347414 -0.00056308528    65.205476    22821.385 
 9155000   -200598.39    1.8473615 -0.0028753719    65.312369    22834.179 
 9160000   -200509.15    1.8051372 0.00071200106    65.332835    22847.019 
 9165000   -200690.62    1.8079337 0.0037409307    65.219266    22859.789 
 9170000    -200713.1    1.7849117 -0.0014225774    65.188653    22872.559 
 9175000    -200562.1     1.790854 -0.008346912     65.34494    22885.361 
 9180000   -200561.04    1.7464141 -0.0061934562    65.332484    22898.171 
 9185000    -200504.9    1.7907137 0.0014013333    65.205274     22910.98 
 9190000   -200682.71    1.7725527 0.0053421018    65.171962     22923.81 
 9195000   -200638.56    1.7690277 -0.002888637     65.31868    22936.618 
 9200000    -200545.3    1.8186261 -0.0010278393    65.285853    22949.416 
 9205000   -200523.35    1.7875959 -0.0089776541     65.43439    22962.209 
 9210000   -200780.53    1.7431304 0.0041351888    65.167203    22975.018 
 9215000   -200598.22     1.762809 -0.002190382    65.346749    22987.797 
 9220000   -200503.65    1.7676989 0.00058736792    65.262024    23000.619 
 9225000   -200474.51    1.7949332  0.001012948    65.233909    23013.425 
 9230000   -200413.63    1.7967889 -0.0048883806    65.468502    23026.205 
 9235000   -200570.08    1.8172465 -0.0042771076     65.44964    23038.992 
 9240000   -200565.37    1.8413892 -0.00031448167      65.2266    23051.757 
 9245000   -200778.26    1.8023697 -0.0026343327    65.165245    23064.558 
 9250000   -200674.19    1.7742725 0.0045320723    65.086029    23077.392 
 9255000   -200694.85    1.7848472 -0.00076716994     65.17987    23090.197 
 9260000   -200645.55     1.841903 -0.00047932962    65.230154    23103.034 
 9265000    -200544.6    1.8057582 0.0003929135     65.30141    23115.846 
 9270000   -200709.49    1.7565282  0.003855809    65.289597    23128.631 
 9275000   -200538.89     1.821362 -0.00016468669     65.34879    23141.426 
 9280000   -200608.01    1.7979897 0.0036308985    65.240089    23154.201 
 9285000   -200743.91    1.7849379  0.005288187    65.236248    23166.966 
 9290000   -200438.53    1.7423426 -0.0031599517    65.400362    23179.769 
 9295000   -200662.06    1.7461862 -0.0033518168    65.298319    23192.541 
 9300000   -200669.19     1.822157 -0.002078072    65.264399    23205.317 
 9305000   -200673.68     1.817397 -0.0055402594    65.222768    23218.147 
 9310000   -200686.37    1.7450644 -0.0011489595    65.128461    23230.991 
 9315000   -200671.48    1.8054188 -0.00040032089    65.142379      23243.8 
 9320000   -200542.27    1.8003086 -0.0030397246    65.274141    23256.631 
 9325000   -200574.01    1.7639651 -0.0027526053    65.274732    23269.415 
 9330000   -200476.08    1.8187706 0.0011099572    65.164609    23282.217 
 9335000   -200721.67    1.7614228 0.0058841516    65.011643     23295.01 
 9340000   -200710.98    1.8145074 0.0021601574    65.009768    23307.839 
 9345000   -200519.38    1.8115867 0.0011073422    65.021971    23320.656 
 9350000   -200546.07    1.7991975 0.0025071562    65.023911    23333.441 
 9355000   -200581.96    1.8163101 -0.0038909229    65.180151    23346.269 
 9360000   -200665.98    1.7911621 -0.0076444732    65.242091    23359.089 
 9365000   -200620.68    1.8120526 -0.0038283647    65.160875    23371.916 
 9370000   -200444.95    1.7930709 -0.0043126015    65.310434    23384.744 
 9375000   -200714.25    1.7914704 -0.002325562    65.192173    23397.519 
 9380000   -200649.95    1.8101248 -0.0068631707     65.34024      23410.3 
 9385000   -200651.95    1.8463843  0.001089193    65.214503    23423.112 
 9390000   -200484.09    1.8120331 -0.0020271495    65.325821    23435.908 
 9395000   -200514.08     1.901445 -0.0041527977    65.301824    23448.705 
 9400000   -200605.07     1.814869 0.0028101339    65.123824     23461.55 
 9405000   -200649.53    1.7727148 -0.0035543127    65.156022    23474.387 
 9410000   -200789.29    1.7627109 0.0016836434    65.202806    23487.159 
 9415000   -200500.75    1.7813761 0.0056719065    65.200603    23499.988 
 9420000   -200647.98    1.7383876 0.00013951165    65.229413    23512.754 
 9425000   -200533.71    1.7775831 -0.0021493981    65.342817    23525.579 
 9430000   -200642.12    1.7976493 0.0022503616    65.182688    23538.394 
 9435000   -200537.22     1.789933 0.0019187709    65.335726      23551.2 
 9440000   -200528.46    1.7949222 0.00036716288    65.332014        23564 
 9445000   -200540.47    1.7809078 -0.0032444295    65.411149    23576.812 
 9450000   -200619.74    1.8090421 -0.0034004004    65.335796     23589.61 
 9455000   -200783.31    1.7742092 -0.0013027702    65.330131    23602.376 
 9460000   -200472.55    1.8539895 0.00099430551    65.322483    23615.192 
 9465000   -200575.46    1.7963984 -0.0026057654    65.401911    23627.997 
 9470000   -200576.17    1.8060195 -0.0046864851    65.474953     23640.79 
 9475000   -200519.16    1.7544104 0.0024983355    65.415545    23653.635 
 9480000   -200635.37    1.7920318 -5.8351147e-06    65.319679    23666.416 
 9485000   -200556.43    1.8511829 -0.001216445    65.316353     23679.23 
 9490000    -200435.7    1.7637901 -0.0047945812    65.491882    23692.045 
 9495000   -200483.24    1.8461576 -0.0041336491    65.343597    23704.841 
 9500000   -200480.38    1.7870411 0.0026304025    65.306189    23717.682 
 9505000   -200680.94    1.8056475 -0.0035272169    65.396771    23730.484 
 9510000   -200652.52    1.7723839 -0.0008334202    65.348378    23743.246 
 9515000    -200708.8    1.7623699 -0.0017209836    65.344634     23756.02 
 9520000   -200492.29    1.8156729 -0.0034132026     65.42388    23768.809 
 9525000   -200720.11    1.8192551 -0.0051951417    65.340489    23781.613 
 9530000   -200690.71    1.7833934 -0.0016214105    65.387537    23794.425 
 9535000   -200648.04    1.8227611 0.0003482742    65.390413    23807.218 
 9540000   -200740.32    1.7963702 0.0005454125    65.311635    23819.995 
 9545000   -200432.87    1.8193342 -0.003341916    65.503629    23832.795 
 9550000   -200617.42    1.8350821 0.0094594877    65.222585    23845.587 
 9555000    -200642.1    1.8115226 -0.0061078353    65.461082    23858.379 
 9560000    -200707.8      1.75692 0.0009186509    65.236827    23871.197 
 9565000   -200766.59    1.8044694 0.0032353525    65.198918    23884.026 
 9570000   -200456.29    1.8143118 0.00015006074    65.422061    23896.848 
 9575000   -200531.97    1.7885233 0.00021560366    65.393501     23909.67 
 9580000   -200635.54     1.783978 0.0005227536    65.357294    23922.452 
 9585000   -200629.28    1.8599116 0.00078747411    65.389536    23935.226 
 9590000   -200711.44    1.8001821 0.00020362238    65.295245    23947.963 
 9595000   -200621.74    1.7888721 -0.00063574142    65.293946    23960.762 
 9600000   -200490.82     1.793013 -0.00063651613    65.290489    23973.556 
 9605000   -200452.55    1.7990988 -0.0022150941    65.261066    23986.377 
 9610000   -200624.13    1.6890327 0.00037876548    65.141351    23999.214 
 9615000   -200516.53    1.8424105 0.0014123057    65.173888    24012.016 
 9620000    -200546.1    1.7950597 -0.0032019129    65.222803    24024.826 
 9625000   -200467.53    1.8265719 -0.00085033689    65.251207    24037.603 
 9630000   -200438.67    1.7933705 -0.00088650244    65.331978    24050.378 
 9635000   -200644.79    1.7869697 -0.0020539592    65.377331    24063.128 
 9640000   -200568.85    1.7906769 0.00045573702    65.304702    24075.937 
 9645000   -200621.53     1.796687 -0.00050800834    65.234182    24088.755 
 9650000   -200473.99    1.7781591 -0.00069674462    65.354832    24101.588 
 9655000   -200521.73    1.8953875 0.0012040242     65.24127     24114.36 
 9660000   -200424.82    1.8470925 -0.0029891312    65.334497    24127.185 
 9665000   -200600.45    1.7554499 -5.178212e-05    65.243027     24139.97 
 9670000   -200511.74    1.8363912  -0.00130464    65.357215    24152.718 
 9675000   -200492.22    1.8329445 8.381102e-05    65.376752    24165.537 
 9680000   -200388.42    1.7920746 -0.0037583168     65.40831    24178.281 
 9685000   -200660.35     1.781009   0.00175381    65.331659    24191.061 
 9690000   -200739.87    1.7731747 0.00090940188    65.242143    24203.863 
 9695000   -200640.13    1.7700832  0.003312597    65.204784    24216.628 
 9700000   -200695.87    1.8048222 -0.0019028039    65.380475    24229.408 
 9705000   -200553.15    1.8222735 -0.00059711613    65.448596     24242.21 
 9710000   -200725.06    1.7990168 0.0050131185    65.228535    24254.989 
 9715000   -200751.07    1.7788812 0.0012290007    65.292823    24267.787 
 9720000   -200546.59    1.8391189 -0.0034906392    65.410395     24280.61 
 9725000   -200638.46    1.8298032 -0.00059366072    65.301729      24293.4 
 9730000   -200704.82    1.8032697 -0.0022673643    65.441413     24306.21 
 9735000   -200653.29    1.7907718 0.0051159008    65.291229    24318.974 
 9740000   -200733.79    1.8074347 5.1514621e-05    65.356415    24331.737 
 9745000   -200478.47     1.836822 -0.0021689878     65.37727    24344.508 
 9750000   -200734.94    1.8118814 -0.0016291315      65.2208     24357.27 
 9755000   -200713.63    1.8367357 -0.0031646163    65.373543    24370.079 
 9760000   -200616.27    1.8118769 0.0008738344    65.279018    24382.824 
 9765000   -200591.23    1.8065481 -0.0019808761    65.428937    24395.609 
 9770000   -200582.63    1.7945138 -0.002392226     65.35451    24408.411 
 9775000    -200538.4    1.8764214 -0.0012399516    65.327116    24421.215 
 9780000   -200658.19    1.8139135 0.0033495162    65.302276    24434.003 
 9785000   -200587.27    1.8269989 0.00055880417    65.353237    24446.754 
 9790000   -200826.61    1.8312705 0.0094211773    65.105263    24459.521 
 9795000   -200687.11    1.7900743 -0.0016554296    65.322701     24472.29 
 9800000   -200600.67    1.8053144 0.0001641643    65.368638    24485.037 
 9805000   -200644.79    1.7908605 0.0034739074    65.285638    24497.807 
 9810000   -200507.41    1.8061073 0.0064220741    65.237551    24510.577 
 9815000   -200632.38    1.7816047 -0.001634643    65.366054    24523.313 
 9820000   -200528.68    1.7916842  -0.00322346    65.437485     24536.08 
 9825000   -200504.33    1.8742286 -0.0021261002    65.473795    24548.822 
 9830000   -200680.05    1.8188446 0.0019519093    65.334869    24561.613 
 9835000   -200569.91    1.7506183 -0.00090588906    65.445044    24574.408 
 9840000   -200352.64    1.7669642 -0.002629482    65.544835    24587.202 
 9845000   -200751.81    1.7921793 0.0039229932     65.22656    24599.959 
 9850000   -200649.35    1.7124989 -0.00080352734    65.374319    24612.745 
 9855000   -200537.07    1.8140583 4.6747983e-05    65.307991    24625.535 
 9860000   -200497.34    1.7698698 0.00061574287    65.337859      24638.3 
 9865000   -200596.16    1.7991513 0.0065429871    65.192542    24651.077 
 9870000   -200720.95    1.7719856 -0.0058088089    65.472265    24663.871 
 9875000   -200516.93    1.7928527 -0.00086205935    65.363394    24676.656 
 9880000   -200622.35    1.8283567  0.003121632    65.254796    24689.426 
 9885000   -200426.01     1.782895 -0.002193419    65.311492    24702.234 
 9890000    -200358.4    1.7904112 -0.0032321797    65.300439    24715.016 
 9895000   -200596.73    1.7659739 -0.00016323997    65.232245    24727.821 
 9900000   -200350.58    1.7842796 3.7032946e-05    65.248234    24740.627 
 9905000   -200570.98    1.7938394 0.0014882499    65.245515    24753.401 
 9910000   -200588.39    1.8013132 -0.0030119761    65.334553    24766.227 
 9915000   -200566.77     1.766562 8.0002751e-05    65.255818    24778.989 
 9920000   -200642.69    1.7940792 0.0030005901    65.219593     24791.77 
 9925000   -200629.62      1.78074 0.00026291694     65.18344    24804.595 
 9930000   -200573.96    1.8413762 -0.0030407874     65.28667    24817.435 
 9935000   -200640.76    1.7946949 0.0013797926    65.136328    24830.243 
 9940000   -200594.47    1.8451624 -0.00013420667    65.198408    24843.061 
 9945000   -200622.83    1.7871279 0.0027220092    65.141766     24855.91 
 9950000   -200593.21    1.8328209 -0.00056352442    65.215576    24868.701 
 9955000   -200448.07    1.8334076 0.00092398037    65.268988    24881.533 
 9960000   -200627.05     1.753875 -0.0004237582    65.250419    24894.354 
 9965000   -200649.83    1.8448462 0.0024113905    65.315926    24907.181 
 9970000   -200528.26    1.8256855 -0.0052485788    65.364973    24919.963 
 9975000   -200532.59    1.8545264  0.002427992    65.233974    24932.743 
 9980000   -200525.27    1.7969104 -0.0043716264      65.3774    24945.538 
 9985000   -200657.22    1.7921517 -0.0020986116    65.278906    24958.328 
 9990000   -200645.77       1.8502 0.0010813849     65.14982    24971.148 
 9995000    -200685.3    1.8229153 0.0060166116    65.052497     24983.95 
10000000   -200664.03    1.8054874 0.0050244819    65.084594    24996.789 
10005000   -200464.59    1.8094818 0.0038648723    65.087084    25009.601 
10010000   -200541.24    1.8056448 0.0016754985    65.132552    25022.418 
10015000    -200542.4     1.788384 0.0032575812    65.106948    25035.216 
10020000   -200380.14    1.8168664 -0.0041220257     65.30827    25048.062 
10025000   -200625.17     1.782678 -0.0040058017    65.262555    25060.921 
10030000   -200526.92    1.8021601 -0.0012725006    65.208534    25073.742 
10035000   -200451.23    1.7750836 0.0012754976    65.236639    25086.538 
10040000   -200667.18    1.8013708 -0.0010913574    65.168699    25099.318 
10045000   -200679.56    1.8334699 0.0012006128    65.170753    25112.121 
10050000   -200564.53    1.8125472 0.0027803264    65.091965     25124.96 
10055000   -200722.07    1.8706712 0.0015237449    65.148301    25137.777 
10060000   -200805.03    1.7721207 -0.0021336877    65.140322    25150.594 
10065000   -200727.57    1.7837862 0.0060492559    65.041951    25163.407 
10070000   -200578.72    1.7901255 -0.0018213813    65.213053    25176.235 
10075000   -200640.29    1.7573943 -0.0035760246    65.303979    25189.052 
10080000   -200553.34     1.822163 -0.0028065469    65.344843    25201.848 
10085000   -200647.19    1.8011236 -0.0047604063    65.370343    25214.661 
10090000   -200540.17    1.7947037 0.0012273775    65.265101    25227.423 
10095000   -200622.36    1.8166348 0.00026338441    65.214758    25240.224 
10100000   -200874.83    1.8196279 0.0035763058    65.147222    25253.041 
10105000   -200751.91    1.7538425 -0.0049662631    65.227938    25265.842 
10110000    -200707.4    1.8067271 0.0030092108    65.115914    25278.624 
10115000   -200937.91    1.7962567 -0.005163017    65.230761    25291.429 
10120000   -200562.03    1.8369274 -0.00060153792    65.265535    25304.272 
10125000   -200582.14    1.7931262 -0.0016368685    65.286111    25317.121 
10130000   -200524.05    1.8017998 -0.00015775457    65.207196    25329.931 
10135000   -200597.37    1.7854026 -0.00024177608    65.123021    25342.749 
10140000   -200512.82     1.845108 -0.001496191    65.188261    25355.586 
10145000   -200454.24    1.8472429 -0.0018424766    65.295557    25368.403 
10150000    -200415.3    1.7611672 0.0037037671     65.27062    25381.205 
10155000   -200551.85    1.8362049 -0.0024963572    65.384281    25394.006 
10160000   -200491.84    1.7757507   0.00246328     65.29968     25406.81 
10165000   -200587.87    1.8175424 0.0031067693    65.281663    25419.571 
10170000   -200667.41    1.7926568 -0.0022788682    65.402537    25432.401 
10175000   -200586.91    1.7873006 0.0043969988    65.467537    25445.188 
10180000   -200578.54    1.8378564 -0.0012138929    65.413418    25457.946 
10185000   -200325.78    1.8243225 -0.00032962342    65.431987    25470.726 
10190000   -200705.66    1.7576276  0.002314159    65.301105    25483.544 
10195000   -200556.65    1.7486164 0.0011302964    65.301696    25496.352 
10200000   -200649.59    1.8148242 -0.00072756218    65.250893    25509.187 
10205000   -200660.86    1.8040378 0.0036206284    65.156494    25522.012 
10210000   -200640.96    1.7828393 0.00052470425    65.367289    25534.827 
10215000   -200844.15    1.7713791 -0.0014781337    65.314965    25547.599 
10220000   -200671.93    1.7625079 0.0021178712    65.232091    25560.338 
10225000   -200714.15    1.8352216 -0.0032290083    65.327129    25573.148 
10230000   -200578.45    1.7827682 0.0052706276    65.153698    25585.964 
10235000   -200580.36    1.8025002 -0.00077391602    65.358417    25598.766 
10240000    -200572.5    1.8356251 -4.3648015e-05    65.261595    25611.573 
10245000   -200410.71    1.7560726 0.0031699929    65.296956    25624.343 
10250000   -200634.21    1.7499334 0.0036680306    65.247934    25637.148 
Loop time of 25637.1 on 8 procs for 10000000 steps with 2304 atoms

Performance: 33701.096 tau/day, 390.059 timesteps/s
95.7% CPU use with 8 MPI tasks x 1 OpenMP threads

MPI task timing breakdown:
Section |  min time  |  avg time  |  max time  |%varavg| %total
---------------------------------------------------------------
Pair    | 4143.3     | 4381.3     | 4721.7     | 296.6 | 17.09
Bond    | 0.97539    | 1.1102     | 1.2999     |   9.3 |  0.00
Kspace  | 10839      | 10952      | 11076      | 101.9 | 42.72
Neigh   | 668.39     | 678.47     | 701.97     |  42.5 |  2.65
Comm    | 1014.5     | 1023.4     | 1034.5     |  19.8 |  3.99
Output  | 0.8847     | 0.91915    | 1.1565     |   9.4 |  0.00
Modify  | 6323.8     | 7867.9     | 8540.4     | 899.7 | 30.69
Other   |            | 731.8      |            |       |  2.85

Nlocal:        288.000 ave         301 max         277 min
Histogram: 1 0 1 2 1 1 0 1 0 1
Nghost:        5934.12 ave        5975 max        5902 min
Histogram: 2 0 1 0 2 0 1 1 0 1
Neighs:         0.00000 ave           0 max           0 min
Histogram: 8 0 0 0 0 0 0 0 0 0
FullNghs:      242475.0 ave      255019 max      232834 min
Histogram: 1 0 2 1 2 0 0 1 0 1

Total # of neighbors = 1939800
Ave neighs/atom = 841.92708
Ave special neighs/atom = 0.0000000
Neighbor list builds = 83325
Dangerous builds = 0

## ----- deletion for small NPs and salt ----- ##
#    reset_timestep 0

#    label checking

#    compute     peatom    all   pe/atom
#    variable    exppe    atom    exp(2*c_peatom/${ttemp})
#    compute     aveS    small   reduce ave v_exppe
#    compute     aveCl   anion   reduce ave v_exppe
#    compute     aveNa   cation  reduce ave v_exppe

#    fix AVE all ave/time 5 ${repeat} ${freq} c_aveS c_aveCl file average.dat
#    thermo 10000
#    thermo_style custom step pe c_press lx cpu
#    thermo_modify norm no flush yes
#    fix AVE all ave/time 1 ${repeat} ${freq} c_aveS c_aveCl c_aveNa
#    variable    chempNP equal ${ttemp}*(ln(v_numS/vol)+ln(v_numCl/vol)*25+ln(f_AVE[1])+ln(f_AVE[2])*25)
#    variable    chempS  equal ${ttemp}*(ln(v_numNa/vol)+ln(v_numCl/vol)+ln(f_AVE[2])+ln(f_AVE[3]))
#    timestep 0.0005
#    run ${freq}

#    print "done! ChempNP= ${chempNP}" append potential.dat
Total wall time: 7:28:00
