LAMMPS (27 Oct 2021)
OMP_NUM_THREADS environment is not set. Defaulting to 1 thread. (src/comm.cpp:98)
  using 1 OpenMP thread(s) per MPI task
package gpu 0
package gpu 2 neigh no pair/only on
#Lammps gcmc code for electrolytes

## ----- Simulation times ----- ##
    variable t_nve      equal 50000             #nve/limit
    variable t_deform 	equal 50000            #nvt
    variable t_pressed 	equal 50000            #nvt
    variable t_relaxed 	equal 100000            #nvt
    variable t_eq 	equal 10000000           #nvt

    variable smallc	equal 10
    variable bigc	equal -80
    variable numB	equal 256
    variable numS	equal ${numB}*8
    variable numS	equal 256*8
#    variable numCl	equal ${numS}*${smallc}+${bigc}*${numB}

## ----- Environment setting ----- ##
    boundary p p p
    atom_style full

## ----- System Variables  ----- ##
    variable    ttemp       equal   $b          	#reduced temperature
    variable    ttemp       equal   1.78          	
    variable    ppress      equal   0			#osmetic pressure
    variable    cutoff_pppm equal   27.8	        #cutoff for the real part of pppm
    variable	ipress      equal   0.1

    variable    bigd        equal   10                      #LJ sigmas
    variable    smalld      equal   2
#    variable    Cl_d        equal   0.4
    variable    d_bs        equal   0.5*(${bigd}+${smalld})
    variable    d_bs        equal   0.5*(10+${smalld})
    variable    d_bs        equal   0.5*(10+2)
#    variable    d_sNa       equal   0.5*(v_smalld+v_Na_d)
#    variable    d_sCl       equal   0.5*(v_smalld+v_Cl_d)
#    variable    d_bNa       equal   0.5*(v_bigd+v_Na_d)
#    variable    d_bCl       equal   0.5*(v_bigd+v_Cl_d)
#    variable    d_NaCl      equal   0.5*(v_Na_d+v_Cl_d)

    variable    cut_small   equal   ${smalld}*1.122462	    #cutoffs for LJ
    variable    cut_small   equal   2*1.122462	    
    variable    cut_big     equal   ${bigd}*1.122462
    variable    cut_big     equal   10*1.122462
#    variable    cut_Na_d    equal   ${Na_d}*1.122462
#    variable    cut_Cl_d    equal   ${Cl_d}*1.122462
    variable    cut_bs      equal   ${d_bs}*1.122462
    variable    cut_bs      equal   6*1.122462
#    variable    cut_bNa     equal   ${d_bNa}*1.122462
#    variable    cut_bCl     equal   ${d_bCl}*1.122462
#    variable    cut_sNa     equal   ${d_sNa}*1.122462
#    variable    cut_sCl     equal   ${d_sCl}*1.122462
#    variable    cut_NaCl    equal   ${d_NaCl}*1.122462

## ----- Initialization and grouping ----- ##
    read_data config_fcc8.dat
Reading data file ...
  orthogonal box = (-80.000000 -80.000000 -80.000000) to (80.000000 80.000000 80.000000)
  2 by 2 by 2 MPI processor grid
  reading atoms ...
  2304 atoms
Finding 1-2 1-3 1-4 neighbors ...
  special bond factors lj:    0        0        0       
  special bond factors coul:  0        0        0       
     0 = max # of 1-2 neighbors
     0 = max # of 1-3 neighbors
     0 = max # of 1-4 neighbors
     1 = max # of special neighbors
  special bonds CPU = 0.002 seconds
  read_data CPU = 0.017 seconds

    set type 1 charge   ${bigc}    	#large NPs
    set type 1 charge   -80    	
Setting atom values ...
  256 settings made for charge
    set type 2 charge   ${smallc}       #small NPs
    set type 2 charge   10       
Setting atom values ...
  2048 settings made for charge
#    set type 3 charge   1       #Na+
#    set type 3 charge   -1      #Cl-

    mass    *   0.2
    mass    1   25.0

    group big       type 1
256 atoms in group big
    group small     type 2
2048 atoms in group small
#    group cation    type 3
#    group anion     type 3

## ----- Interaction setting ----- ##
    pair_style lj/cut/coul/long ${cut_big} ${cutoff_pppm} #lj/cut/coul/long/soft 2.0 0.5 5.0 ${cut_small} ${cutoff_pppm}
    pair_style lj/cut/coul/long 11.22462 ${cutoff_pppm} 
    pair_style lj/cut/coul/long 11.22462 27.8 
    #Between regular particles (4*5/2=10)
    pair_coeff  1   1   2.0     ${bigd}     ${cut_big}	        # big-big
    pair_coeff  1   1   2.0     10     ${cut_big}	        
    pair_coeff  1   1   2.0     10     11.22462	        
    pair_coeff  2   2   2.0     ${smalld}   ${cut_small}	    # small-small
    pair_coeff  2   2   2.0     2   ${cut_small}	    
    pair_coeff  2   2   2.0     2   2.244924	    
#    pair_coeff  3   3   2.0     ${Na_d}     ${cut_Na_d}		    # Na-Na
#    pair_coeff  3   3   2.0     ${Cl_d}     ${cut_Cl_d}       	# Cl-Cl
    pair_coeff  1   2   2.0     ${d_bs}     ${cut_bs}	        # big-small
    pair_coeff  1   2   2.0     6     ${cut_bs}	        
    pair_coeff  1   2   2.0     6     6.734772	        
#    pair_coeff  1   3   2.0     ${d_bNa}    ${cut_bNa}	        # big-Na
#    pair_coeff  1   3   2.0     ${d_bCl}    ${cut_bCl}	        # big-Cl
#    pair_coeff  2   3   2.0     ${d_sNa}    ${cut_sNa}       	# small-Na
#    pair_coeff  2   3   2.0     ${d_sCl}    ${cut_sCl}       	# small-Cl
#    pair_coeff  3   4   2.0     ${d_NaCl}   ${cut_NaCl}       	# Na-Cl
#    pair_modify pair lj/cut/coul/long shift yes
    pair_modify shift yes
    kspace_style	pppm	5.0e-4

## ----- Simulation setup ----- ##
    neighbor 1.2 bin
    neigh_modify delay 0 every 1 check yes #one 2000

    compute temp all temp
    compute press all pressure temp

    thermo 5000
    thermo_style custom step pe temp c_press lx cpu
    thermo_modify norm no flush yes

   # dump moldump all custom 50000 ${xyzname} id type q x y z

## ----- Thermalization of system ----- ##
    timestep 0.0002

    fix 1 all nve/limit 0.05
    fix 2 big langevin ${ttemp} ${ttemp} 0.2 1234567
    fix 2 big langevin 1.78 ${ttemp} 0.2 1234567
    fix 2 big langevin 1.78 1.78 0.2 1234567
    fix 3 small langevin ${ttemp} ${ttemp} 0.008 123456
    fix 3 small langevin 1.78 ${ttemp} 0.008 123456
    fix 3 small langevin 1.78 1.78 0.008 123456

    fix freeze big setforce 0.0 0.0 0.0
    fix zeromom all momentum 1 linear 1 1 1 angular
    run ${t_nve}
    run 50000

CITE-CITE-CITE-CITE-CITE-CITE-CITE-CITE-CITE-CITE-CITE-CITE-CITE

Your simulation uses code contributions which should be cited:

- GPU package (short-range, long-range and three-body potentials):

@Article{Brown11,
 author = {W. M. Brown, P. Wang, S. J. Plimpton, A. N. Tharrington},
 title = {Implementing Molecular Dynamics on Hybrid High Performance Computers - Short Range Forces},
 journal = {Comp.~Phys.~Comm.},
 year =    2011,
 volume =  182,
 pages =   {898--911}
}

@Article{Brown12,
 author = {W. M. Brown, A. Kohlmeyer, S. J. Plimpton, A. N. Tharrington},
 title = {Implementing Molecular Dynamics on Hybrid High Performance Computers - Particle-Particle Particle-Mesh},
 journal = {Comp.~Phys.~Comm.},
 year =    2012,
 volume =  183,
 pages =   {449--459}
}

@Article{Brown13,
 author = {W. M. Brown, Y. Masako},
 title = {Implementing Molecular Dynamics on Hybrid High Performance Computers – Three-Body Potentials},
 journal = {Comp.~Phys.~Comm.},
 year =    2013,
 volume =  184,
 pages =   {2785--2793}
}

@Article{Trung15,
 author = {T. D. Nguyen, S. J. Plimpton},
 title = {Accelerating dissipative particle dynamics simulations for soft matter systems},
 journal = {Comput.~Mater.~Sci.},
 year =    2015,
 volume =  100,
 pages =   {173--180}
}

@Article{Trung17,
 author = {T. D. Nguyen},
 title = {GPU-accelerated Tersoff potentials for massively parallel Molecular Dynamics simulations},
 journal = {Comp.~Phys.~Comm.},
 year =    2017,
 volume =  212,
 pages =   {113--122}
}

@Article{Nikolskiy19,
 author = {V. Nikolskiy, V. Stegailov},
 title = {GPU acceleration of four-site water models in LAMMPS},
 journal = {Proceeding of the International Conference on Parallel Computing (ParCo 2019), Prague, Czech Republic},
 year =    2019
}

CITE-CITE-CITE-CITE-CITE-CITE-CITE-CITE-CITE-CITE-CITE-CITE-CITE

PPPM initialization ...
  using 12-bit tables for long-range coulomb (src/kspace.cpp:340)
  G vector (1/distance) = 0.11438956
  grid = 60 60 60
  stencil order = 5
  estimated absolute RMS force accuracy = 0.00041211524
  estimated relative force accuracy = 0.00041211524
  using double precision KISS FFT
  3d grid and FFT values/proc = 42875 28800
  generated 0 of 1 mixed pair_coeff terms from geometric mixing rule
Neighbor list info ...
  update every 1 steps, delay 0 steps, check yes
  max neighbors/atom: 2000, page size: 100000
  master list distance cutoff = 29
  ghost atom cutoff = 29
  binsize = 14.5, bins = 12 12 12
  1 neighbor lists, perpetual/occasional/extra = 1 0 0
  (1) pair lj/cut/coul/long/gpu, perpetual
      attributes: full, newton off
      pair build: full/bin
      stencil: full/bin/3d
      bin: standard
Per MPI rank memory allocation (min/avg/max) = 11.45 | 11.54 | 11.62 Mbytes
Step PotEng Temp c_press Lx CPU 
       0 1.7992005e+08            0    175.78446          160            0 
    5000   -68281.745    1.5728196 -0.0042593968          160    39.381421 
   10000   -73922.249    1.6556126 -0.0043333305          160    78.578773 
   15000   -78364.927    1.5526308 -0.0044106966          160    117.83804 
   20000   -82447.572    1.6340476 -0.0044307382          160    157.08464 
   25000   -86164.255    1.6147576 -0.004482015          160    196.34077 
   30000   -89686.437     1.583871 -0.0043712484          160    235.52934 
   35000   -93042.155    1.6021986 -0.0042770209          160    274.69708 
   40000   -96054.384    1.6105993 -0.0041730321          160     313.9287 
   45000   -98700.738     1.627844 -0.004094399          160    353.23516 
   50000   -101421.88    1.5598577 -0.0042489684          160    392.46782 
Loop time of 392.468 on 8 procs for 50000 steps with 2304 atoms

Performance: 2201.453 tau/day, 127.399 timesteps/s
99.7% CPU use with 8 MPI tasks x 1 OpenMP threads

MPI task timing breakdown:
Section |  min time  |  avg time  |  max time  |%varavg| %total
---------------------------------------------------------------
Pair    | 8.99       | 9.3469     | 9.7134     |  11.0 |  2.38
Bond    | 0.0065801  | 0.008092   | 0.0093848  |   1.0 |  0.00
Kspace  | 376.48     | 377.15     | 377.73     |   2.4 | 96.10
Neigh   | 0.061583   | 0.069849   | 0.077564   |   2.0 |  0.02
Comm    | 2.3517     | 2.6224     | 2.955      |  13.4 |  0.67
Output  | 0.00034295 | 0.00052914 | 0.0018088  |   0.0 |  0.00
Modify  | 2.7533     | 2.7905     | 2.8306     |   1.9 |  0.71
Other   |            | 0.4784     |            |       |  0.12

Nlocal:        288.000 ave         313 max         260 min
Histogram: 2 0 0 0 1 2 1 0 0 2
Nghost:        1331.62 ave        1353 max        1305 min
Histogram: 1 1 0 0 1 2 0 1 0 2
Neighs:         0.00000 ave           0 max           0 min
Histogram: 8 0 0 0 0 0 0 0 0 0
FullNghs:      16550.2 ave       18893 max       14131 min
Histogram: 2 0 0 1 0 3 0 0 0 2

Total # of neighbors = 132402
Ave neighs/atom = 57.466146
Ave special neighs/atom = 0.0000000
Neighbor list builds = 75
Dangerous builds = 0

#    compute     peatom      all     pe/atom
#    variable    exppe       atom    exp(2*c_peatom/${ttemp})
#    compute     aveS        small   reduce ave v_exppe
#    compute     aveCl       anion   reduce ave v_exppe
#    compute     aveNa       cation  reduce ave v_exppe
#    thermo ${every}
#    thermo_style custom step pe temp lx vol c_aveS c_aveCl c_aveNa cpu
#    thermo_modify norm no flush yes
#    variable    chempNP     equal   temp*(ln(2304/vol)+ln(18300/vol)*10+ln(c_aveS)+ln(c_aveCl)*10)
#    variable    chempS      equal   temp*(ln(5500/vol)+ln(18300/vol)+ln(c_aveNa)+ln(c_aveCl))
#    label checking
#    run ${every}
#    if "${chempNP}>${mu_np}" then 'print "ChempNP=${chempNP}; expel"' "jump gcmc.in checking" else 'print "done!"'

    fix deforming all deform 10 x final -33 33 y final -33 33 z final -33 33 remap x
    run ${t_deform}
    run 50000
PPPM initialization ...
  using 12-bit tables for long-range coulomb (src/kspace.cpp:340)
  G vector (1/distance) = 0.11438956
  grid = 60 60 60
  stencil order = 5
  estimated absolute RMS force accuracy = 0.00041211524
  estimated relative force accuracy = 0.00041211524
  using double precision KISS FFT
  3d grid and FFT values/proc = 42875 28800
  generated 0 of 1 mixed pair_coeff terms from geometric mixing rule
Per MPI rank memory allocation (min/avg/max) = 11.45 | 11.54 | 11.62 Mbytes
Step PotEng Temp c_press Lx CPU 
   50000   -101421.88    1.5598577 -0.0042489684          160            0 
   55000   -107855.41    1.6601422 -0.0036861461        150.6    42.073687 
   60000   -114957.13    1.6151576 -0.0040319493        141.2    84.319115 
   65000   -122453.22    1.5767429 -0.0041267451        131.8     126.4974 
   70000   -130256.86    1.5712742 -0.0035135137        122.4    168.75911 
   75000   -138269.08    1.6008243 -0.001995117          113    211.02835 
   80000   -146847.22    1.6383019 0.0015441997        103.6    253.34401 
   85000   -155516.57    1.5536211  0.012024617         94.2    295.81548 
   90000   -164278.64    1.5778862  0.033393456         84.8    338.45545 
   95000   -172561.79    1.6291531  0.075320715         75.4    381.32786 
  100000   -182324.34    1.6589394    0.1723379           66    424.57106 
Loop time of 424.571 on 8 procs for 50000 steps with 2304 atoms

Performance: 2034.994 tau/day, 117.766 timesteps/s
99.7% CPU use with 8 MPI tasks x 1 OpenMP threads

MPI task timing breakdown:
Section |  min time  |  avg time  |  max time  |%varavg| %total
---------------------------------------------------------------
Pair    | 9.8045     | 10.142     | 10.525     |   9.5 |  2.39
Bond    | 0.007251   | 0.0082808  | 0.0096456  |   0.9 |  0.00
Kspace  | 378.44     | 378.9      | 379.45     |   2.0 | 89.24
Neigh   | 0.79239    | 0.87338    | 0.96141    |   5.8 |  0.21
Comm    | 3.7067     | 4.0716     | 4.4058     |  10.7 |  0.96
Output  | 0.00089927 | 0.0051261  | 0.011435   |   5.3 |  0.00
Modify  | 25.408     | 27.821     | 29.878     |  32.7 |  6.55
Other   |            | 2.75       |            |       |  0.65

Nlocal:        288.000 ave         300 max         268 min
Histogram: 1 0 1 0 0 2 0 1 0 3
Nghost:        5848.12 ave        5886 max        5817 min
Histogram: 2 0 2 0 0 1 1 0 1 1
Neighs:         0.00000 ave           0 max           0 min
Histogram: 8 0 0 0 0 0 0 0 0 0
FullNghs:      233832.0 ave      245305 max      216788 min
Histogram: 1 0 1 0 2 0 0 1 0 3

Total # of neighbors = 1870654
Ave neighs/atom = 811.91580
Ave special neighs/atom = 0.0000000
Neighbor list builds = 336
Dangerous builds = 0

    unfix 1
#    unfix 2
    unfix freeze
    unfix deforming

    timestep 0.002

    fix 1 all   nph	            iso ${ipress} ${ipress} 1.0
    fix 1 all   nph	            iso 0.1 ${ipress} 1.0
    fix 1 all   nph	            iso 0.1 0.1 1.0
    run ${t_pressed}
    run 50000
PPPM initialization ...
  using 12-bit tables for long-range coulomb (src/kspace.cpp:340)
  G vector (1/distance) = 0.1206864
  grid = 32 32 32
  stencil order = 5
  estimated absolute RMS force accuracy = 0.00049681107
  estimated relative force accuracy = 0.00049681107
  using double precision KISS FFT
  3d grid and FFT values/proc = 9261 4096
  generated 0 of 1 mixed pair_coeff terms from geometric mixing rule
Per MPI rank memory allocation (min/avg/max) = 9.326 | 9.328 | 9.331 Mbytes
Step PotEng Temp c_press Lx CPU 
  100000   -182285.43    1.6589394   0.17395683           66            0 
  105000   -200054.79    1.8059574  0.096481631     61.96472    14.141539 
  110000    -201826.2    1.7952807  0.097483829     60.96812    28.514788 
  115000    -203303.5     1.796691   0.10002925    60.405875    43.037846 
  120000   -203846.95    1.7668094  0.097762869    60.236345    57.621926 
  125000   -204256.58     1.824571   0.10281167    60.055928    72.214656 
  130000    -204553.6    1.8337695   0.10171846    60.087556    86.834587 
  135000   -204566.68    1.8050253   0.10412877    60.085473    101.42906 
  140000    -204764.9    1.8251899   0.10511599    60.038067    116.05485 
  145000   -204915.33    1.7597038   0.10270461    60.024744    130.76283 
  150000   -204969.39     1.766356   0.10518059    60.027428    145.42481 
Loop time of 145.425 on 8 procs for 50000 steps with 2304 atoms

Performance: 59412.086 tau/day, 343.820 timesteps/s
97.5% CPU use with 8 MPI tasks x 1 OpenMP threads

MPI task timing breakdown:
Section |  min time  |  avg time  |  max time  |%varavg| %total
---------------------------------------------------------------
Pair    | 14.882     | 18.372     | 20.795     |  43.7 | 12.63
Bond    | 0.0045297  | 0.0050846  | 0.0064045  |   0.9 |  0.00
Kspace  | 66.308     | 66.937     | 67.487     |   5.1 | 46.03
Neigh   | 6.9768     | 7.1414     | 7.5532     |   6.8 |  4.91
Comm    | 5.9167     | 6.0618     | 6.1657     |   3.3 |  4.17
Output  | 0.00032859 | 0.00053527 | 0.001966   |   0.0 |  0.00
Modify  | 41.631     | 45.023     | 48.651     |  29.9 | 30.96
Other   |            | 1.884      |            |       |  1.30

Nlocal:        288.000 ave         294 max         285 min
Histogram: 1 2 1 2 0 1 0 0 0 1
Nghost:        7246.62 ave        7254 max        7237 min
Histogram: 1 0 1 0 1 1 1 1 1 1
Neighs:         0.00000 ave           0 max           0 min
Histogram: 8 0 0 0 0 0 0 0 0 0
FullNghs:      314072.0 ave      320955 max      310680 min
Histogram: 1 2 1 2 0 1 0 0 0 1

Total # of neighbors = 2512578
Ave neighs/atom = 1090.5286
Ave special neighs/atom = 0.0000000
Neighbor list builds = 778
Dangerous builds = 0
    unfix 1
    fix 1 all   nph	            iso ${ipress} ${ppress} 1.0
    fix 1 all   nph	            iso 0.1 ${ppress} 1.0
    fix 1 all   nph	            iso 0.1 0 1.0
    run ${t_relaxed}
    run 100000
PPPM initialization ...
  using 12-bit tables for long-range coulomb (src/kspace.cpp:340)
  G vector (1/distance) = 0.12140299
  grid = 30 30 30
  stencil order = 5
  estimated absolute RMS force accuracy = 0.00050110097
  estimated relative force accuracy = 0.00050110097
  using double precision KISS FFT
  3d grid and FFT values/proc = 8000 3600
  generated 0 of 1 mixed pair_coeff terms from geometric mixing rule
Per MPI rank memory allocation (min/avg/max) = 9.782 | 9.803 | 9.818 Mbytes
Step PotEng Temp c_press Lx CPU 
  150000   -204969.26     1.766356   0.10518566    60.027428            0 
  155000   -205018.51    1.7836529  0.095872608    60.119231     14.15713 
  160000      -205204    1.8005626  0.090330376    60.144488    28.351676 
  165000   -205236.27    1.7666882  0.089024605    60.168525    42.522918 
  170000   -205308.61    1.7469786  0.080195834    60.198885    56.680265 
  175000   -205223.11    1.7996784   0.07441011    60.302706    70.784476 
  180000   -204977.21    1.7659193  0.066936366    60.450776    84.889904 
  185000   -205141.08     1.769048  0.066172887    60.454544    98.979713 
  190000   -205040.27    1.8024229  0.060641446    60.526203    113.07274 
  195000   -204928.77     1.793552  0.056691344    60.621294    127.12033 
  200000   -205133.57    1.7845521  0.055387298    60.672997    141.24389 
  205000   -205099.91    1.7734323  0.043831713    60.734481    155.31543 
  210000   -204894.15    1.7573879  0.035325757     60.87348     169.3868 
  215000   -204814.76     1.756525  0.035255831    60.923254    183.46982 
  220000   -204816.38    1.7235477  0.031441354    61.018999    197.51081 
  225000   -204622.44     1.758135   0.02480312    61.157022    211.54708 
  230000   -204566.94    1.7890858  0.014243749    61.394551    225.56913 
  235000    -204295.4    1.7833527  0.012760717    61.466551    239.55066 
  240000   -204468.52    1.7826046  0.011601617     61.47857    253.49975 
  245000   -204241.49     1.819852 0.0055867804    61.612642    267.45093 
  250000   -204040.02    1.7593005  0.004154547    61.745541    281.29253 
Loop time of 281.293 on 8 procs for 100000 steps with 2304 atoms

Performance: 61430.679 tau/day, 355.502 timesteps/s
94.7% CPU use with 8 MPI tasks x 1 OpenMP threads

MPI task timing breakdown:
Section |  min time  |  avg time  |  max time  |%varavg| %total
---------------------------------------------------------------
Pair    | 54.213     | 58.804     | 64.329     |  42.0 | 20.90
Bond    | 0.0089568  | 0.010324   | 0.012737   |   1.2 |  0.00
Kspace  | 109.39     | 110.72     | 111.92     |   7.7 | 39.36
Neigh   | 14.038     | 14.332     | 14.944     |   8.7 |  5.10
Comm    | 11.849     | 12.17      | 12.371     |   5.0 |  4.33
Output  | 0.00062546 | 0.00095274 | 0.0032051  |   0.0 |  0.00
Modify  | 61.745     | 77.687     | 86.738     | 105.4 | 27.62
Other   |            | 7.57       |            |       |  2.69

Nlocal:        288.000 ave         290 max         286 min
Histogram: 2 0 1 0 0 1 0 3 0 1
Nghost:        6921.12 ave        6944 max        6898 min
Histogram: 2 0 0 1 1 0 1 2 0 1
Neighs:         0.00000 ave           0 max           0 min
Histogram: 8 0 0 0 0 0 0 0 0 0
FullNghs:      288332.0 ave      290851 max      285914 min
Histogram: 1 1 0 1 1 0 2 1 0 1

Total # of neighbors = 2306654
Ave neighs/atom = 1001.1519
Ave special neighs/atom = 0.0000000
Neighbor list builds = 1569
Dangerous builds = 0
    unfix 1

    timestep 0.001
    dump moldump all custom 10000 ${xyzname} id type q x y z
    dump moldump all custom 10000 r8f0_coulombic_1.78.lammpstrj id type q x y z
    fix 1 all   nph                 iso ${ppress} ${ppress} 1.0
    fix 1 all   nph                 iso 0 ${ppress} 1.0
    fix 1 all   nph                 iso 0 0 1.0
    run ${t_eq}
    run 10000000
PPPM initialization ...
  using 12-bit tables for long-range coulomb (src/kspace.cpp:340)
  G vector (1/distance) = 0.12073849
  grid = 30 30 30
  stencil order = 5
  estimated absolute RMS force accuracy = 0.00054389264
  estimated relative force accuracy = 0.00054389264
  using double precision KISS FFT
  3d grid and FFT values/proc = 8000 3600
  generated 0 of 1 mixed pair_coeff terms from geometric mixing rule
Per MPI rank memory allocation (min/avg/max) = 11.05 | 11.07 | 11.08 Mbytes
Step PotEng Temp c_press Lx CPU 
  250000   -204040.07    1.7593005 0.0041527099    61.745541            0 
  255000   -203831.03    1.7861175 -0.0023264531    61.875191    13.394462 
  260000   -203895.61    1.7762721 -7.5049134e-05    61.880309    26.766723 
  265000   -203909.44    1.8181892 -0.0024600653     61.96212    40.128355 
  270000   -203815.46    1.7835585 -0.0020012237    61.986408     53.51619 
  275000    -203743.3    1.8151979 0.0059800825    61.880049    66.896831 
  280000   -203387.65    1.7902057  0.002065049    61.999349     80.25617 
  285000   -203498.27    1.7456817 -0.0062348652    62.193154    93.569234 
  290000   -203245.77    1.8008266 -0.0021280162    62.208826       106.87 
  295000   -203259.49    1.7622742 -0.0082526696    62.303894    120.16642 
  300000   -203498.81    1.7940971 -0.0026279936    62.171526    133.47046 
  305000   -203271.61    1.7441838 0.00025698449    62.170982    146.75037 
  310000   -203220.75    1.7883345 0.00053870194     62.20746    160.03065 
  315000   -203089.63     1.799414 5.2286728e-05    62.258223    173.28505 
  320000   -203033.19    1.8004107 -0.005733581    62.367308    186.56549 
  325000   -203129.07    1.8082162 0.00039132658    62.285558      199.836 
  330000   -203001.34    1.7445991 0.0020966039    62.286746    213.12857 
  335000   -203017.22    1.7825469 0.0082880233     62.20072    226.38613 
  340000   -202775.33    1.8191566 -0.0014318616    62.366604    239.65829 
  345000   -203169.55    1.7429813 -5.1242468e-05     62.25156    252.94116 
  350000   -202898.82    1.7662856 -0.0019218137    62.364669    266.25082 
  355000   -202910.47    1.7080593 -0.004179064      62.3534    279.49155 
  360000   -202968.07    1.7735853 0.0040964576    62.248244    292.75256 
  365000    -202602.9    1.8002679 0.0025410085    62.377844     306.0541 
  370000   -202772.97    1.7643665 0.0051479077    62.400785    319.29514 
  375000   -202869.86    1.7241972 -0.0054139367    62.484741    332.54925 
  380000    -202588.7     1.810098 0.0010779487    62.464967    345.78499 
  385000      -202707    1.7558117  0.004293641    62.352596     359.0542 
  390000   -202720.93     1.779887 -0.0021398947    62.559647    372.32627 
  395000   -202515.56     1.781649 -0.0021841697     62.59756    385.55953 
  400000   -202495.89    1.7726549 0.0030643314    62.530135    398.82379 
  405000   -202191.71    1.7880303 -0.0010285612    62.710371    412.01684 
  410000   -202348.31    1.8020846 -0.00027016843    62.613223    425.19192 
  415000   -202491.45    1.7632267 -3.3635561e-05    62.582032    438.42428 
  420000   -202573.75    1.7639103 -0.0036028179    62.716824     451.6379 
  425000   -202412.24    1.7871338 -0.00060483927     62.59172    464.80896 
  430000    -202569.9    1.8018698 -0.0063138401    62.624195    478.02544 
  435000   -202650.37    1.8196269   0.00208525    62.569217    491.25159 
  440000   -202469.26    1.7568041 0.0057640829      62.5481    504.49387 
  445000   -202196.69    1.7515469 -0.0014244307    62.795203    517.65777 
  450000   -202272.56    1.7393455 7.5046952e-06    62.745069    530.82841 
  455000    -202241.9    1.8122315 -0.0017028762    62.716571    544.02017 
  460000   -202405.04     1.781817 -0.00084465775    62.663563    557.24594 
  465000   -202291.67    1.7132849 -0.0018258085    62.698556    570.40223 
  470000      -202268    1.7706752 0.0045335929    62.670401    583.59783 
  475000   -202135.67    1.7834484 0.0044012137    62.776435    596.75844 
  480000   -202213.73    1.7530926 -0.0044089516    62.939085    609.96794 
  485000   -202003.23    1.7182459 -0.0004802104    62.947077      623.101 
  490000    -202008.2    1.7344374 -0.0017741096    62.961431    636.25632 
  495000   -201936.44    1.7774156 0.0015736421    63.042747     649.3805 
  500000   -202028.41    1.7987539 0.00026441282    63.071839    662.50203 
  505000   -201965.42    1.8052039 -0.0010034814    63.038576    675.61052 
  510000   -201840.31    1.7809315 -0.0052568418    63.169091    688.73618 
  515000   -201572.19    1.7999732 -0.0016856564    63.254153    701.81528 
  520000   -201677.55    1.8289174 0.0066482306    63.183442    714.89013 
  525000   -201722.51    1.7951001 -0.0017829949    63.278844    727.98625 
  530000   -201506.41    1.7896947 0.00058458538     63.30323    741.07442 
  535000   -201489.99     1.707542 -0.0011297547    63.362213    754.14039 
  540000   -201533.92    1.7816152 0.0047519208    63.344451     767.1948 
  545000    -201437.1    1.8100623 -0.00041039951    63.491143    780.25388 
  550000   -201204.46    1.7549683 0.0060932416    63.436362    793.29477 
  555000   -201406.93    1.7777862 0.0085768577    63.400642     806.3665 
  560000   -201506.29    1.7761096 0.0081778815    63.476042    819.41897 
  565000   -201440.63    1.8167505 -0.0043625762    63.670934    832.46377 
  570000   -201410.08    1.8129488 -0.00088161809     63.70739    845.45287 
  575000   -201203.44    1.7947682 -0.0014805378    63.743731     858.4717 
  580000   -201127.57    1.8218719 -0.0014335476    63.856168    871.45051 
  585000   -201430.54    1.7960714 -0.0014931569    63.792792    884.46153 
  590000   -200977.52     1.817143 -0.00068572649    63.894831    897.46055 
  595000   -201189.73     1.832765 -0.00080851695    63.879323    910.47211 
  600000   -201088.22    1.7726532  -0.00453958    63.904457    923.44487 
  605000   -201168.57    1.7599637 -0.0041176039    63.946491    936.45276 
  610000   -201152.77    1.7943511 -0.0015968658     63.95542    949.45548 
  615000   -201005.61    1.7990689 -0.0016531601    64.098065    962.40628 
  620000   -201124.05    1.7803183 -0.0010805753    64.108011    975.30495 
  625000   -201012.27    1.7544166 -0.0021800957    64.244756    988.24201 
  630000   -200955.49    1.8146975 -6.2197751e-06    64.269746    1001.1549 
  635000   -200957.61    1.7695038 -0.0016925925    64.276535    1014.1081 
  640000   -200745.43    1.8066683 -0.004339552    64.495908    1026.9918 
  645000   -200951.33    1.7751291 -0.0016995539    64.543974     1039.878 
  650000    -201110.8    1.7323469 0.0031372386    64.520288    1052.7096 
  655000   -200821.39    1.7666324 -0.0010471223    64.522274    1065.6097 
  660000   -201055.68    1.7770901 0.0037178751    64.497421    1078.4577 
  665000    -200853.4    1.7946137 0.00025233351     64.58945    1091.3177 
  670000   -200706.13     1.826091 -0.0031552911    64.777185    1104.1628 
  675000   -200905.74    1.7446934 -0.0033705266    64.745069    1117.0127 
  680000   -200729.87    1.7025612 -0.0001620873    64.691562    1129.8465 
  685000   -200715.62     1.758791 0.0017269298    64.737798     1142.675 
  690000   -200766.66     1.822203 0.0035200745    64.738888    1155.5367 
  695000   -200579.38    1.7998352 -0.0018891191    64.865723     1168.385 
  700000   -200833.43    1.7482205 0.00087591125     64.79972    1181.2199 
  705000   -200542.84    1.7772474 9.0650885e-05    64.891638    1194.0695 
  710000   -200445.17     1.821859 0.00062107643    64.883991    1206.8886 
  715000   -200569.05    1.7790653 0.0010545825     64.86083    1219.7101 
  720000    -200800.8    1.8105497 -0.0019357559    64.962613    1232.5278 
  725000   -200843.17    1.7875607  0.002537755    64.879427    1245.3383 
  730000   -200690.64    1.8018347 -0.0044187011    64.927723    1258.1113 
  735000   -200919.72     1.789626 -0.00087262692    64.884663    1270.9463 
  740000   -200808.67    1.7524274 -0.00089779463    64.845244    1283.7303 
  745000   -200693.07    1.7647023 0.0019700663    65.001481    1296.5114 
  750000   -200700.58    1.7937246 -0.0038839746    65.084987    1309.3131 
  755000   -200625.87    1.8023529 0.0011592028    65.038075    1322.1038 
  760000   -200755.85    1.7479157 0.0029576313    64.942758    1334.9377 
  765000   -200700.97    1.7869301 0.00023878631    65.035726    1347.7582 
  770000   -200710.56    1.8376962 0.0038732672     65.04816    1360.5494 
  775000   -200428.33    1.8213819 0.0018901235    65.083049    1373.3536 
  780000   -200594.25     1.799742 0.0046800272    65.152786    1386.1324 
  785000   -200672.54    1.7135019 -0.00012353227    65.176291    1398.8837 
  790000   -200523.88    1.7498492 -0.0017537897     65.26227    1411.6733 
  795000   -200488.96    1.7767444 0.00085341173    65.220128    1424.4325 
  800000   -200552.96    1.7313381 -0.0033139011    65.215652    1437.1769 
  805000   -200876.49    1.8050073 0.00064061281    65.084235    1449.9404 
  810000   -200841.75    1.7752358 0.0027122864      65.0367    1462.7065 
  815000   -200653.94    1.7672451 -0.0011830715    65.205066    1475.5019 
  820000   -200777.07    1.7282395 0.0046769174    65.177027     1488.279 
  825000   -200730.61    1.8165501 -0.00021306301    65.270547    1501.0711 
  830000    -200643.8    1.7464218 0.0014077244    65.122955    1513.8306 
  835000    -200644.2    1.8068664 -0.0005810109    65.174997    1526.5926 
  840000   -200684.33    1.7899646 0.0041029459    65.099174    1539.3903 
  845000   -200527.69    1.7759863 0.00019776933    65.032186    1552.1437 
  850000   -200426.22    1.7333743 -0.0014326919    65.153154     1564.908 
  855000   -200414.47    1.7819381 -0.0070916756    65.201852    1577.6806 
  860000   -200730.88     1.754149 -0.0037376625    65.077533    1590.4818 
  865000   -200761.69    1.8374744 -0.00020094009    65.009058     1603.319 
  870000   -200564.06    1.7690373 -0.0029127982    65.119906    1616.1572 
  875000   -200560.64     1.801378 -0.0011729499    65.165398    1628.9347 
  880000   -200760.17     1.726735 -0.0016136979    65.062535    1641.6908 
  885000   -200585.75    1.7366358 -0.001049189    65.066956    1654.5037 
  890000   -200680.28    1.7304474 -0.0044608927    65.144355    1667.3059 
  895000   -200745.55     1.766328 -0.0013743687    65.182573    1680.0542 
  900000   -200705.66    1.7394755  -0.00430065    65.204942    1692.8523 
  905000   -200603.51    1.8028843 0.00042021351    65.171467    1705.6035 
  910000   -200626.98    1.7753466 -0.006759374    65.319813    1718.3629 
  915000   -200750.18    1.8026255 -0.0022997893    65.253444    1731.1143 
  920000   -200534.26    1.8112299 0.00038740399    65.201712    1743.8547 
  925000   -200604.06    1.8059572  0.000542887    65.238028    1756.6369 
  930000   -200654.42    1.8039996 0.0017272366    65.259532    1769.3604 
  935000    -200639.3    1.7809713 0.00089285113    65.139081    1782.0907 
  940000   -200773.45    1.7896365 -0.0011415192    65.225225    1794.8524 
  945000   -200634.65    1.7811052 -0.0027168861     65.23651    1807.5878 
  950000   -200655.98    1.8032706 -0.004641811    65.352395    1820.3858 
  955000   -200781.22    1.7758926 -0.00078526486    65.191461    1833.1013 
  960000   -200475.53    1.7784324 -0.00033992473    65.272017    1845.8886 
  965000   -200522.16     1.801126 0.0012855011    65.230856    1858.5958 
  970000   -200852.18    1.8100901 -0.0041260908     65.25798    1871.3434 
  975000   -200925.92    1.7494284 -0.00033274051    65.187196    1884.0618 
  980000    -200597.5     1.739497 -0.0019561496    65.296437    1896.8224 
  985000   -200645.55    1.7810795 0.0030818094    65.169863    1909.5709 
  990000   -200735.73    1.7576809 -1.0871953e-05     65.23093    1922.3249 
  995000   -200807.44    1.7424399 -0.00036585799    65.271768    1935.0615 
 1000000   -200667.06    1.7489683 -0.0043082269    65.338834     1947.789 
 1005000   -200654.86    1.7890435 0.00083564004    65.307585     1960.576 
 1010000   -200587.48    1.7877805 0.0010138879    65.419465    1973.3399 
 1015000   -200658.19    1.8351415 0.0016119016    65.322028    1986.0934 
 1020000   -200608.03    1.7861461 -0.0021501261    65.356509    1998.8523 
 1025000   -200570.84    1.8007324 0.0051443556    65.277526    2011.5832 
 1030000   -200693.68    1.7482705 0.0015662741    65.225375    2024.3788 
 1035000    -200750.8    1.7879052  0.002312047    65.228738    2037.1159 
 1040000   -200695.61    1.7906752 0.00093480908    65.245596    2049.8682 
 1045000   -200759.38    1.7562584 -0.0011869108    65.217396    2062.6098 
 1050000   -200577.08    1.7700707 0.0033178609    65.134087     2075.437 
 1055000   -200603.46    1.7726067 0.00022028885    65.215052    2088.2199 
 1060000   -200628.05    1.7734959 0.0015979351     65.20508    2100.9762 
 1065000   -200567.68    1.8021025 0.00054397727    65.255591    2113.7698 
 1070000   -200540.31    1.7344016 0.0018741145    65.139163    2126.5441 
 1075000   -200647.77    1.7840269 -0.0014713678    65.245465    2139.2618 
 1080000   -200577.49    1.8105758 0.0015187603    65.385263    2152.0366 
 1085000      -200579    1.8186852 -0.004137536    65.465474    2164.7782 
 1090000   -200634.43    1.7372699 -0.0022518893    65.361611    2177.5184 
 1095000   -200593.46    1.7311307 -0.00043389157    65.251602    2190.3182 
 1100000   -200796.16    1.8181629 0.0025544566     65.23543    2203.0613 
 1105000   -200633.46    1.7779588 -0.0033953126    65.291939    2215.8329 
 1110000    -200720.1    1.7736552 0.00012848348    65.226362    2228.6294 
 1115000    -200661.4    1.8331137 9.5085487e-05    65.260534    2241.3794 
 1120000   -200659.37    1.8063419 -0.0029999928     65.35901    2254.1669 
 1125000   -200618.58    1.7975829 -0.0015820381    65.375483     2266.892 
 1130000   -200726.71    1.7834463 0.0012826008    65.279177    2279.6313 
 1135000   -200793.29    1.8085669 -0.001821717    65.347694    2292.4232 
 1140000   -200837.24    1.7868169 -0.002685552    65.358465     2305.216 
 1145000   -200686.74     1.839133 -0.0037903371    65.444321    2317.9775 
 1150000   -200658.39    1.7851844 -9.7851975e-05    65.388466    2330.7799 
 1155000    -200852.6    1.7561873 0.0011205061    65.331212    2343.5189 
 1160000   -200622.09    1.7575401 -0.00049443083    65.370327    2356.2414 
 1165000   -200489.94    1.7553294 -0.0036509579    65.466551    2369.0042 
 1170000   -200497.28    1.7993724 0.0009267259    65.434507    2381.7301 
 1175000   -200595.02    1.7667848 -0.0022707271    65.422872    2394.4742 
 1180000   -200775.49    1.8516285 -0.0062590943    65.539708    2407.1946 
 1185000   -200528.84    1.8181727 -0.0029747974    65.420092    2419.9998 
 1190000   -200473.07    1.7792914 0.0017449881    65.400556    2432.7852 
 1195000   -200659.81    1.7679033 0.0040216738    65.255877    2445.5649 
 1200000   -200715.75    1.7944136 -0.0022264311    65.296776    2458.2955 
 1205000   -200682.31    1.7861023 -0.00088322529    65.309738      2471.06 
 1210000   -200962.43    1.7832744 0.00032718157    65.217104    2483.8238 
 1215000   -200668.42    1.7851947 -0.0020625975    65.304279     2496.591 
 1220000   -200746.77    1.8008095 0.00037073274    65.223692    2509.3573 
 1225000   -200611.52    1.7966563 0.00057734633    65.207311    2522.1488 
 1230000   -200708.46    1.7995509 0.0064342508    65.133179    2534.9368 
 1235000    -200704.7    1.7671314 -0.0054293685    65.334794    2547.6953 
 1240000   -200617.28    1.7950247 -0.0012571702    65.294151    2560.4779 
 1245000   -200654.33    1.7766827 -0.00085281393    65.213945    2573.2517 
 1250000   -200617.46    1.7969482 -0.0021816199     65.30147    2586.0446 
 1255000   -200758.24    1.7553681 0.0019953052    65.217546    2598.8197 
 1260000   -200544.15    1.7823567 -0.00020015464    65.315654    2611.5918 
 1265000   -200790.77    1.7405149 0.0011402469    65.134196    2624.3639 
 1270000   -200675.89    1.8318364 4.0801933e-06    65.197093    2637.1303 
 1275000   -200703.87     1.779976 -0.0010880347    65.230678    2649.9478 
 1280000   -200572.85    1.7531359 -0.0047709957    65.256185    2662.7582 
 1285000   -200665.19    1.7246787 -0.0012314596     65.14464    2675.5367 
 1290000   -200608.36    1.7522579 9.0594937e-05    65.201954    2688.3476 
 1295000   -200653.89     1.725681  -0.00581046    65.307405    2701.1221 
 1300000   -200620.07    1.7721887 0.0010621158    65.262564    2713.9042 
 1305000   -200742.76    1.7743149 -3.3918025e-05    65.192126    2726.6763 
 1310000   -200919.14    1.7647731 0.00086239573    65.147516    2739.4195 
 1315000   -200905.95    1.7239215 -0.0023102555    65.145314     2752.166 
 1320000   -200822.79    1.8012658 0.00049708437    65.110779    2764.9624 
 1325000   -200794.68    1.7867388 -0.0006219168    65.076957    2777.7286 
 1330000   -200880.73    1.7661967 -0.0026170399    65.152454    2790.5275 
 1335000   -200776.33    1.7535907 -0.0045461913    65.296859    2803.3135 
 1340000   -200824.16    1.7728508 0.0019193025    65.121379    2816.1301 
 1345000   -200747.61    1.8101746 0.0042529524    65.162889    2828.9099 
 1350000   -200993.38    1.7625026 -1.0450395e-05    65.167983    2841.7048 
 1355000   -200826.77    1.7593916 -0.0052507226    65.216648    2854.4698 
 1360000   -200932.41    1.7556978 -0.0024429415    65.190708    2867.2581 
 1365000   -200638.78    1.8198719 -0.00087347454    65.237547    2880.0357 
 1370000   -200709.01    1.7583138 0.0012413479    65.217006    2892.7946 
 1375000   -200785.32    1.6972439 -0.0058834069    65.281821    2905.5742 
 1380000   -200658.51    1.7621834 -0.0035226568    65.255965    2918.3736 
 1385000   -200515.42    1.7123948 0.0050180581    65.294454    2931.1267 
 1390000   -200566.51    1.7530586 -0.0020485239    65.424997     2943.881 
 1395000   -200536.02    1.7952358  0.001271127    65.307382    2956.6895 
 1400000   -200756.18    1.7557988 0.0025612001    65.291908    2969.4047 
 1405000   -200594.07    1.7369527 -0.0019098635    65.313047    2982.1982 
 1410000   -200730.42    1.7436133 -0.0075142841    65.332381    2994.9876 
 1415000   -200773.65    1.7434586 -0.0035940793    65.254409     3007.749 
 1420000   -200837.22    1.7570008  0.001852968    65.166306    3020.5494 
 1425000   -200795.85    1.8040281 -0.0020841814    65.168127    3033.3136 
 1430000   -200505.16    1.8319959 0.00026496697    65.287517     3046.106 
 1435000   -200685.09    1.7787377 0.00067677905    65.190449     3058.874 
 1440000   -200656.73     1.778035 0.00041896811    65.268336    3071.6132 
 1445000   -200762.68    1.7528919 -0.0041099765    65.317134    3084.3645 
 1450000   -200896.26    1.8022813 0.00095388592    65.159174    3097.1608 
 1455000   -200723.34    1.7939423 0.0020822103    65.232623     3109.958 
 1460000   -200645.99    1.7925548 -0.00016922782    65.160476    3122.7351 
 1465000   -200807.87    1.8184806 0.0021737824     65.17839    3135.5195 
 1470000   -200895.05    1.7988496 -0.0046725301    65.118057    3148.3192 
 1475000   -200959.97    1.7561142 0.0017444394    64.944034    3161.1297 
 1480000   -200813.57    1.8211755 -0.0029272046    65.040338    3173.9832 
 1485000   -200637.25    1.7528772 -0.0042066934    65.093078     3186.801 
 1490000   -200607.54    1.7952019 -0.00050240183    65.055906     3199.603 
 1495000   -200730.21    1.7829844 0.0034078447    64.924078    3212.3742 
 1500000   -200659.85    1.7851729 -0.0047239252    65.231631    3225.1643 
 1505000   -200680.14    1.8136585 -0.0040695568    65.179219    3237.9478 
 1510000   -200642.73    1.7709051 -2.1691639e-05     65.22134    3250.7736 
 1515000    -200699.2    1.7911622 -0.0011347991    65.213945     3263.555 
 1520000   -200602.37    1.7931446 0.00093462981    65.207425    3276.3104 
 1525000   -200886.41    1.7758548 0.0035563263    65.025705    3289.0898 
 1530000   -200837.39    1.8218606 -0.0027632527    65.144338    3301.8929 
 1535000   -200707.64    1.7623146 -0.0034847553    65.201109    3314.7522 
 1540000    -200748.3    1.8222534 0.00022119239    65.104798    3327.5179 
 1545000   -200670.82    1.7905624 0.00068901025    65.201939    3340.3035 
 1550000   -200657.44    1.8213228 -0.0015136607    65.243789    3353.0829 
 1555000   -200871.38    1.8327444 -0.00023105488    65.119394    3365.8236 
 1560000   -200601.79    1.8243796  0.001371966    65.144389    3378.6263 
 1565000   -200621.46    1.7598621 -0.0010509404    65.195036    3391.4124 
 1570000   -200477.64    1.7405938 0.0033400494    65.114961    3404.2269 
 1575000   -200706.72    1.8447217 0.00063517097     65.20198    3416.9976 
 1580000   -200727.55    1.7570375 0.0030525674    65.156482    3429.7837 
 1585000   -200634.39    1.7991649 0.0012356077    65.184763    3442.5556 
 1590000   -200583.63    1.8291671 -0.0067710634    65.285098    3455.3235 
 1595000   -200626.33    1.7778349 0.0010184544    65.089201    3468.1044 
 1600000    -200720.8    1.7812456 -0.00036125685    65.141911    3480.9101 
 1605000   -200621.65    1.7944044 0.0019399529    65.183626    3493.7126 
 1610000   -200850.35    1.7356737 0.0017929271     65.20106    3506.4581 
 1615000   -200517.48      1.68024 -0.0029403048    65.288696    3519.2503 
 1620000    -200720.3    1.8561123 0.0028971947    65.125021    3532.0283 
 1625000   -200501.49    1.7645207 -0.005809866    65.370725    3544.8199 
 1630000   -200607.27    1.7716468 -0.0021329634    65.424857      3557.58 
 1635000   -200614.73    1.7773834 0.0011894815    65.377369    3570.3305 
 1640000   -200396.12    1.7517226 0.0030255421    65.343855    3583.1014 
 1645000   -200686.39    1.7861753 7.9997039e-05    65.371285    3595.8318 
 1650000   -200649.53    1.7875605 0.00084597173    65.366441    3608.6294 
 1655000    -200602.6    1.7641166 0.0043970135    65.328267    3621.3709 
 1660000   -200733.86    1.7985861 -0.00091720939    65.338895    3634.1471 
 1665000   -200670.03    1.7829966 -0.0017632777    65.414469    3646.9049 
 1670000   -200900.59    1.7406004 0.0051146853    65.199412    3659.6333 
 1675000   -200678.08    1.8315346 0.0037016452    65.317581    3672.3982 
 1680000   -200821.65    1.8038247  0.001722415    65.361229    3685.2051 
 1685000   -200824.62    1.7737161 0.0024561267    65.266299    3697.9657 
 1690000    -200712.5    1.7478646 -0.0026891101     65.37369    3710.7017 
 1695000   -200746.22    1.7758096 -0.00050662277    65.371159    3723.4508 
 1700000   -200494.89    1.7464527 0.00065957371    65.373045     3736.213 
 1705000   -200747.03    1.7742927 -0.003617762     65.43951    3748.9685 
 1710000   -200738.05    1.8006941 0.00074997352    65.383759    3761.7233 
 1715000   -200730.77    1.8301282 0.0050395888    65.315897    3774.4985 
 1720000   -200648.26    1.7720609 0.0015540136    65.311743    3787.2667 
 1725000   -200540.03    1.7810206 -0.0013605689    65.292722    3800.0361 
 1730000   -200767.39    1.7940155 -0.0058660838    65.306458    3812.8558 
 1735000   -200716.61    1.7160996 -0.00065508626    65.260073    3825.6271 
 1740000   -200653.19    1.7472086 0.0019708426     65.20672    3838.4223 
 1745000    -200563.9    1.8332314 0.0011002617    65.263941    3851.2117 
 1750000   -200652.55    1.7677298 0.0040754729    65.186454    3863.9963 
 1755000   -200732.13    1.7856625 0.0010011462    65.131679    3876.7593 
 1760000   -200634.89    1.7363041 -0.000167655    65.281762    3889.5588 
 1765000   -200506.06    1.8004427 -0.00049162064     65.30739    3902.3132 
 1770000   -200648.64    1.7793729 0.0032730088    65.201983    3915.0815 
 1775000    -200464.3    1.7404791 0.0022181251    65.249713    3927.8377 
 1780000   -200795.07    1.7766015 0.0025262952    65.154067    3940.6016 
 1785000   -200594.58    1.7969421 -0.0022885855    65.278528    3953.3948 
 1790000   -200460.31    1.7908647 -0.0023883222     65.32664      3966.17 
 1795000   -200549.82    1.7778869 0.0025407232     65.20635    3978.9382 
 1800000   -200730.22    1.8047682 0.0029999856    65.047214    3991.7162 
 1805000   -200759.47    1.7430393 -0.0010223637    65.104785    4004.5073 
 1810000   -200617.95    1.7459986 -0.0044119507    65.214797     4017.267 
 1815000   -200669.54    1.7816335 -0.0032388521    65.233853    4030.0567 
 1820000   -200762.71    1.8016765 0.00078591535    65.105715    4042.8377 
 1825000   -200669.08    1.7765136 0.00045140943    65.155503    4055.6143 
 1830000   -200579.71     1.813191 -0.00066559254    65.261197    4068.3784 
 1835000   -200661.54    1.8205279 -0.0015137437     65.31235    4081.1375 
 1840000   -200652.48     1.818756 -0.0015095207    65.251995    4093.9227 
 1845000   -200694.91    1.8118649 -0.0022746246    65.280967     4106.707 
 1850000   -200563.83    1.7313946 -0.00065197799    65.161739     4119.464 
 1855000   -200594.84    1.8029359 0.0032165095    65.236551    4132.2231 
 1860000   -200594.24    1.7431249 -0.0028320684    65.355559    4144.9981 
 1865000   -200705.43    1.7987095 0.00035853579    65.251795     4157.695 
 1870000   -200610.36    1.7551288 0.00013109249    65.229968    4170.4634 
 1875000   -200636.84     1.735602 -0.00043704812    65.273361    4183.2163 
 1880000   -200522.45    1.7562596 0.00044759921    65.211817    4195.9827 
 1885000    -200664.3    1.7680648 -3.5214515e-05    65.131751    4208.7558 
 1890000   -200637.16    1.8180152 -0.0024700659    65.175892     4221.517 
 1895000   -200612.43    1.7584897 -0.0017037515    65.180304    4234.3368 
 1900000   -200527.11    1.7682281 -0.0014428718    65.156953    4247.1372 
 1905000   -200695.93    1.7882967 0.0047982916    65.051488    4259.9104 
 1910000   -200708.18    1.7864871 -0.00020014417    65.119989     4272.675 
 1915000   -200621.78    1.7812701 -0.0012088877    65.211527    4285.4456 
 1920000   -200664.31    1.7729121 0.0029308182    65.153342    4298.2117 
 1925000   -200513.58    1.8303874 0.0050235366    65.063487    4310.9644 
 1930000   -200458.63    1.7556385 2.2536294e-05    65.192768    4323.7583 
 1935000   -200601.38    1.7369829 -0.0021807756    65.257295    4336.5262 
 1940000   -200764.33    1.7814808 -0.00022650011    65.201008       4349.3 
 1945000   -200676.26    1.7860214 -0.0018877557    65.215755    4362.0472 
 1950000   -200412.21    1.7736477 -0.0004281816    65.323321    4374.7929 
 1955000   -200641.78    1.8014568 -0.0029640505    65.236923    4387.5797 
 1960000    -200599.2     1.795193 0.00083927945    65.268007    4400.3629 
 1965000   -200589.99    1.6640762 0.00081614972    65.146181    4413.0996 
 1970000   -200650.76    1.7971339 -0.00017712468    65.257413    4425.8489 
 1975000   -200599.35    1.8176501 -0.0056513654    65.355933    4438.6725 
 1980000   -200563.29    1.7731035 0.0092495532    65.132328    4451.4466 
 1985000   -200607.66    1.7378336 0.0075394618     65.17644    4464.2335 
 1990000   -200775.11    1.7819954 0.0025972343    65.209153     4477.013 
 1995000   -200548.31    1.7253327 -0.0011116285    65.361992    4489.7817 
 2000000   -200795.86    1.7545015 -0.0031231077    65.315092    4502.5278 
 2005000   -200562.34    1.7393855 -0.0020995188    65.361933    4515.2923 
 2010000   -200564.68    1.8205079 -0.0022356283    65.377162    4528.0523 
 2015000   -200732.14    1.7843421 0.00034318165    65.270033    4540.8244 
 2020000   -200695.89    1.7270433 -0.0028365852    65.268813    4553.5913 
 2025000   -200623.99    1.7616629 0.0044313918     65.17963    4566.3475 
 2030000   -200505.51    1.7287604 -0.0010967737    65.325407    4579.1354 
 2035000   -200575.73    1.8464257 -0.0018701303    65.283649    4591.9101 
 2040000   -200271.87    1.8145447 0.0010047605     65.32923    4604.7082 
 2045000   -200447.29    1.7599278 0.0029848864     65.27645    4617.4762 
 2050000   -200579.86    1.8162901 -0.0010561645    65.265765    4630.2703 
 2055000   -200411.16      1.74895 -0.0051058668    65.396114    4643.0278 
 2060000   -200445.62    1.7987737 -0.0015467918    65.344386    4655.8072 
 2065000   -200558.91    1.8519526 -0.0033087808    65.336042    4668.6036 
 2070000    -200510.3    1.8504372 -0.00024312951    65.257433    4681.3637 
 2075000    -200653.5    1.7477872 0.0013486888     65.16658     4694.173 
 2080000   -200660.84    1.7389055 0.0025401094    65.152938    4706.9212 
 2085000   -200650.92    1.7729565 0.0012346076    65.205308    4719.6746 
 2090000   -200794.94    1.8123907 -0.0014950938    65.320622    4732.4511 
 2095000   -200536.91    1.7602437 -0.0013664214    65.408322    4745.2439 
 2100000    -200779.9    1.7935133 0.0028104387    65.197775    4758.0273 
 2105000   -200551.65    1.8266378 -0.0026846681    65.363435    4770.7555 
 2110000    -200525.8    1.7747546 0.00015204335    65.246235    4783.5243 
 2115000    -200741.7    1.7180026 5.2744933e-05    65.242475    4796.2978 
 2120000   -200612.89    1.8058395 0.00020513972    65.352598    4809.0569 
 2125000   -200542.24    1.8027603 -0.0067045169    65.453738    4821.8144 
 2130000   -200560.74    1.7986355 -0.0020003126    65.253625    4834.6312 
 2135000   -200662.48    1.7987296 -0.00062509833    65.228676    4847.4205 
 2140000    -200781.3    1.7811065 -0.00031979538    65.241913     4860.189 
 2145000    -200491.3    1.8252298 -0.00028579701    65.240798    4872.9585 
 2150000   -200566.41    1.7690825 -0.00082564955    65.320723    4885.7464 
 2155000   -200644.69    1.7794482 0.00045520343     65.32518    4898.4798 
 2160000   -200590.12    1.7895864 -0.0027480379     65.41482    4911.2463 
 2165000   -200637.16    1.7893051 -0.0027116447    65.354675    4923.9984 
 2170000   -200737.96    1.7824041 -0.00081201272    65.238123    4936.7938 
 2175000   -200758.07     1.737374 0.00088087703    65.210438    4949.5378 
 2180000   -200722.79    1.7804779 -0.00097752723    65.161016    4962.3302 
 2185000   -200586.33    1.8157456 -0.0036563373    65.318592    4975.1257 
 2190000   -200591.15    1.7588253 -0.0041189463    65.427246    4987.8853 
 2195000   -200667.99    1.8083296 -0.0025805902    65.339429     5000.664 
 2200000   -200532.42    1.7575154 -0.0036579006    65.383489    5013.4383 
 2205000   -200587.21    1.7783721  0.001153436    65.285298    5026.1473 
 2210000   -200765.62     1.772226 0.0042408811    65.122824    5038.9097 
 2215000   -200606.71    1.8092565 0.0029604015    65.155283    5051.6559 
 2220000   -200806.84    1.8226265 0.0061443018    65.077008    5064.4304 
 2225000   -200697.99    1.8101605 0.0019566966    65.166584    5077.1828 
 2230000    -200489.5    1.7977406 -0.00060510896    65.306951    5089.9251 
 2235000    -200755.8    1.7672569 -0.0007617159    65.314346    5102.7388 
 2240000   -200891.72    1.8065618 0.0029040993     65.18735    5115.4731 
 2245000   -200694.71    1.8041951 0.0030026269    65.204846    5128.2115 
 2250000   -200784.63    1.7236585 0.0036951426    65.053928    5140.9501 
 2255000   -200647.96    1.7910782 0.0017750944    64.978303    5153.7464 
 2260000   -200700.66    1.7574669 -0.0016141345    65.213124    5166.5664 
 2265000   -200590.91    1.7489869 -0.00026074678    65.158932     5179.346 
 2270000   -200626.66    1.7862585 -0.0037833202    65.254204    5192.1307 
 2275000   -200687.49    1.7632865 -0.0037013837    65.297471    5204.9167 
 2280000   -200692.52    1.8322369 0.0015338156    65.031296    5217.7078 
 2285000   -200397.69    1.7726627 -0.0017945351    65.273856     5230.487 
 2290000   -200705.57     1.777842 -0.00053080881    65.174455    5243.2644 
 2295000   -200848.21    1.8061325 0.0025871365    65.113296    5256.0448 
 2300000   -200533.46    1.7759102 -0.00096754542    65.259762    5268.8119 
 2305000   -200512.91    1.7759144 0.0049395833    65.180357    5281.5901 
 2310000    -200537.3    1.7976334 -0.0043597796    65.373767    5294.3112 
 2315000   -200614.29    1.7617033  0.001657725    65.302203    5307.0885 
 2320000   -200673.02    1.8031367 0.00048558125    65.349876    5319.8317 
 2325000   -200679.55    1.7778186 -0.00021670699    65.261781    5332.5637 
 2330000   -200515.42    1.7844845 0.0010055565    65.238341    5345.3437 
 2335000   -200618.43    1.7800202 -0.0016451781    65.319302    5358.0973 
 2340000   -200636.03    1.7788076 0.0027205064    65.169969    5370.8734 
 2345000   -200518.91    1.8099384 0.0053095978    65.200702    5383.6506 
 2350000   -200593.56    1.8097992 -0.0023482626    65.300392    5396.4308 
 2355000   -200942.74    1.7881796 -0.0015647846    65.238638    5409.2304 
 2360000   -200633.68    1.7924938 -0.0023508952    65.324783    5421.9852 
 2365000   -200726.38    1.7825264 -0.0034999162    65.259298    5434.7441 
 2370000   -200719.61    1.7811102 -0.0013161448    65.248991    5447.4931 
 2375000   -200675.56    1.8016647 -0.0022299756    65.342774    5460.2555 
 2380000   -200793.87    1.7423892 0.0043352904    65.128831    5473.0083 
 2385000   -200766.33    1.8001116 -0.0024981083    65.260279    5485.7396 
 2390000   -200764.69    1.7495111 0.00038880613    65.254572    5498.4959 
 2395000   -200687.53    1.8013844 0.0049212119    65.159331    5511.2513 
 2400000   -200769.01    1.7532144 -0.0004576118    65.180805    5523.9856 
 2405000   -200720.33    1.7582013 -0.0045149227    65.218328    5536.7433 
 2410000   -200712.87    1.7603406 0.0072240745     64.97769    5549.5369 
 2415000   -200674.32    1.7509988 0.0028629571    64.958322    5562.3524 
 2420000   -200749.26    1.8249787 0.0012937056    65.033475    5575.1386 
 2425000   -200672.13    1.8571782 -0.0024805408     65.06658    5587.9583 
 2430000   -200643.28    1.7431082 0.0013059554    65.044041    5600.7856 
 2435000    -200700.3    1.8468512 0.00099042092    65.022981    5613.5741 
 2440000   -200746.22    1.7958861 0.00083931911    65.083087     5626.369 
 2445000   -200707.43    1.7219291 -3.8764384e-05    65.143923    5639.1428 
 2450000   -200718.97     1.755095 0.0012920943    65.095486    5651.9355 
 2455000   -200717.99    1.7475737 0.0016887064    65.053816     5664.694 
 2460000   -200710.75    1.7610843 -0.0035157794    65.136929    5677.5162 
 2465000   -200927.07    1.8006591 -4.9666734e-05    65.069704     5690.281 
 2470000   -200708.91    1.7718049 -0.0018121258    65.141821    5703.0264 
 2475000   -200756.61    1.7135453 -0.0047657469    65.224305    5715.8589 
 2480000    -200739.1    1.7839375 0.00080874939    65.184998    5728.6336 
 2485000   -200683.59    1.7493768 0.0028218292    65.167645    5741.3932 
 2490000   -200877.15    1.7770167 0.0031008895    65.203601    5754.1572 
 2495000      -200448    1.7689775 -0.0065357561    65.391476    5766.9236 
 2500000   -200732.57    1.8238411 -0.0028536793    65.279444    5779.6878 
 2505000   -200562.06    1.8054789 0.0012535375    65.315331    5792.4779 
 2510000   -200658.76    1.8146195 0.0015876718    65.276872    5805.2536 
 2515000   -200642.42    1.7809094 -0.00042368813    65.285066    5818.0046 
 2520000   -200750.46    1.8167114 -0.00055073517    65.177855    5830.7321 
 2525000   -200560.87    1.7486076 -0.00018661252     65.25778    5843.4769 
 2530000   -200785.01    1.7451445 -0.0060200245    65.304797    5856.2306 
 2535000    -200664.8     1.771694 -0.0024459498    65.227689    5869.0022 
 2540000   -200648.87    1.8132309 -0.0050540152    65.281547    5881.7528 
 2545000   -200676.13    1.7722342 -0.001122869    65.266422    5894.5124 
 2550000   -200635.63     1.744526 0.0011101022    65.223731    5907.2606 
 2555000   -200626.23    1.7958612 -0.0013010301    65.274798    5920.0108 
 2560000      -200447    1.7737502 -0.0019627114    65.298857    5932.7508 
 2565000   -200812.19     1.805787 0.0065484929    65.062175     5945.523 
 2570000      -200667    1.8147626 -0.0062208807    65.342079    5958.2797 
 2575000   -200535.22    1.7750308 -0.0020243424    65.350183    5971.0186 
 2580000   -200567.67    1.7606355 -0.0021085098     65.35487    5983.7619 
 2585000   -200636.36     1.781857   0.00126513     65.23641    5996.4925 
 2590000   -200716.62    1.7526707 0.00049062389    65.324235    6009.2821 
 2595000   -200542.19    1.7971594 -0.001180692    65.389383    6022.0358 
 2600000   -200636.32    1.8153724 -0.00090450375    65.334865    6034.7486 
 2605000   -200760.42    1.7934771 0.0068326267    65.151484    6047.5148 
 2610000   -200715.89    1.7584189 -0.00077706918    65.107973    6060.2397 
 2615000   -200493.18     1.759657 -0.0011956717    65.208364    6073.0025 
 2620000   -200635.29    1.8088631 -0.00044381746    65.189034      6085.74 
 2625000   -200844.06    1.8101111 0.0013448686    65.288221    6098.4771 
 2630000    -200558.4    1.8084331 0.0024863631    65.312839    6111.2026 
 2635000   -200568.63    1.7920566 0.0019477444    65.348978    6123.9569 
 2640000   -200429.48    1.7855846 0.0028632727    65.346571      6136.69 
 2645000   -200642.25    1.8281212 -0.00085181615    65.426238    6149.4326 
 2650000   -200503.55    1.7741657 -0.00077313905    65.317658    6162.1933 
 2655000   -200650.99    1.7789842 -0.0082840471    65.354219    6174.9481 
 2660000   -200588.98    1.7941257 -0.0009102863    65.362486    6187.7175 
 2665000   -200509.12    1.7705917 0.0030815635    65.401099    6200.4473 
 2670000   -200660.45    1.7999816 0.0024999212    65.269837    6213.2119 
 2675000   -200603.41     1.791992 -0.0020258886    65.363549    6225.9446 
 2680000   -200622.24    1.7701474 -0.00027348068    65.353773    6238.6669 
 2685000   -200378.53    1.8023408 -0.0013025681    65.375877    6251.3931 
 2690000   -200581.58    1.7053257 -0.003824756    65.332962    6264.1694 
 2695000   -200530.22    1.7714899 -0.003175781    65.336429    6276.9253 
 2700000      -200625    1.7645459 -0.0032346693    65.211966    6289.6525 
 2705000   -200663.14    1.7423698 -6.0388337e-05    65.113154    6302.4196 
 2710000   -200488.57    1.7856161 -0.0034399097    65.206152    6315.2102 
 2715000   -200780.98    1.7667078 -0.0018697945    65.146174    6328.0052 
 2720000    -200768.5    1.7803795 0.0017602004    65.112656    6340.7476 
 2725000   -200844.62    1.7490373 0.0021840581    64.956994    6353.5067 
 2730000   -200773.69    1.7936991 0.0028422392    64.994249    6366.3069 
 2735000   -200788.63    1.7654299 -0.00013809358    65.082829    6379.0944 
 2740000   -200703.14    1.7682058 0.0047640531    65.023591    6391.8536 
 2745000   -200680.93    1.7288678 2.4047842e-05    65.117439    6404.6403 
 2750000   -200710.28    1.8070097  0.001692279    65.012951    6417.4123 
 2755000   -200749.39     1.705787 0.00017767103    65.098714    6430.2035 
 2760000   -200530.33    1.8193072 0.0056511635    65.068801    6442.9619 
 2765000   -200878.13    1.7800267 0.0010837185    65.084461    6455.7573 
 2770000    -200737.2    1.7208263 0.0003768814    65.128441    6468.5557 
 2775000   -200760.34    1.7909241 0.0014037038    65.110257    6481.2966 
 2780000    -200710.7    1.8002412 -0.0023982131    65.170274    6494.0617 
 2785000   -200759.85    1.8331249 0.0029380857    65.142573     6506.826 
 2790000   -200810.01    1.8189313 -0.0019494484    65.218027    6519.5779 
 2795000    -200674.9    1.7778351 -0.00028683507    65.230288    6532.3075 
 2800000   -200703.72    1.7762361 0.0040115813    65.251975     6545.081 
 2805000   -200682.14    1.7503923 -0.0011865923     65.22026    6557.8288 
 2810000   -200588.47    1.7874239  0.002936291    65.134361    6570.5828 
 2815000   -200579.13    1.8168221 0.0010352153    65.154106    6583.3759 
 2820000   -200627.42    1.8135641 0.00038612412     65.27166    6596.1661 
 2825000   -200578.78    1.7696234 -0.0047654049    65.309166    6608.9057 
 2830000   -200670.34    1.7581849  0.004903961    65.113492    6621.6703 
 2835000   -200760.15    1.7737322 0.0057399973    65.043702    6634.4095 
 2840000   -200539.25    1.7936123  0.002448525     65.18901    6647.1692 
 2845000   -200669.89    1.7992614 0.0068122465    65.157928    6659.9253 
 2850000   -200648.18    1.7908753 -0.0052184859    65.451018    6672.6995 
 2855000    -200752.9     1.768941 0.0028113125    65.354546    6685.4702 
 2860000   -200879.17    1.8076617 0.0041564986    65.178668    6698.2549 
 2865000   -200727.68    1.7458498 0.0019919513    65.279886    6711.0373 
 2870000   -200645.52     1.737009 -0.0026413791     65.32733    6723.8092 
 2875000   -200518.66    1.7266321 0.00090927018    65.258269    6736.5839 
 2880000   -200646.32    1.7950286 -0.00014084209    65.266394    6749.3554 
 2885000   -200789.92    1.8287499 -0.0025264804    65.378838    6762.1139 
 2890000   -200529.87    1.8278916 -0.0049679789    65.376732    6774.8511 
 2895000   -200613.22    1.7407491 0.0027826929    65.297108    6787.6029 
 2900000    -200514.4    1.7507894 0.00043960147    65.297721    6800.3925 
 2905000   -200443.16    1.7919395 -0.0033756578    65.378657    6813.1341 
 2910000   -200523.82    1.8016918 -0.0044783281      65.4527     6825.897 
 2915000   -200688.51    1.7846624 0.0019094648     65.37796    6838.6266 
 2920000   -200649.06    1.8021894 -0.00060718736    65.357035    6851.3538 
 2925000   -200516.29    1.7950229 -0.0018648982    65.374055    6864.0862 
 2930000   -200691.87    1.8403635 -0.0036156766    65.320044    6876.8712 
 2935000   -200670.95    1.7640195 -0.0031972944    65.407067    6889.6424 
 2940000   -200643.24    1.8019166 0.00040524966     65.26153    6902.4031 
 2945000   -200581.76    1.7856094 -0.0039042601    65.266782    6915.1656 
 2950000   -200681.68    1.8277765 0.0035754541    65.219922    6927.9097 
 2955000   -200543.48    1.7786116 -0.0066790652    65.431558    6940.6284 
 2960000   -200431.35    1.7446946 -0.002381273    65.406323    6953.3963 
 2965000   -200584.66    1.8291785  0.002924449    65.297645     6966.119 
 2970000   -200610.66    1.8139696 -0.0040776535    65.478392    6978.8523 
 2975000   -200696.01    1.7879355 -0.0011977715    65.408356    6991.5916 
 2980000    -200678.3    1.7648879 0.0015237403    65.227716    7004.3874 
 2985000   -200840.32    1.7499535 -0.0028696079    65.276017     7017.157 
 2990000   -200764.15    1.7947197  0.001003109    65.204841     7029.908 
 2995000   -200721.09    1.7681002 -0.0017952099    65.230258      7042.67 
 3000000   -200543.46     1.826188 -0.00090683649    65.272802    7055.4683 
 3005000   -200553.01    1.7686734 0.0017447425    65.248157    7068.2425 
 3010000    -200576.6     1.786643 0.0013044795     65.28441    7081.0279 
 3015000   -200579.75    1.7835803 0.0012622357    65.302112    7093.7442 
 3020000   -200707.99     1.805142 0.0012077527    65.235183     7106.533 
 3025000   -200634.59    1.7693043 0.00041764826    65.352125    7119.2591 
 3030000   -200729.44    1.7749007 0.0033501721    65.247428     7131.992 
 3035000   -200538.79     1.850547 -0.00051460139    65.396444    7144.7363 
 3040000   -200697.04    1.7280925 0.0043650735    65.246173     7157.463 
 3045000   -200625.46    1.7054839 0.0026286362    65.317063    7170.2663 
 3050000   -200685.72    1.8389337 0.0017121868    65.218166    7182.9793 
 3055000   -200626.37    1.7729196 0.0010857657    65.237045     7195.749 
 3060000   -200650.97    1.7480837 -0.00015983411    65.316906    7208.4773 
 3065000   -200636.23    1.7484636 -0.0034779358    65.282535    7221.2382 
 3070000   -200800.98    1.8017428 0.00095978718    65.153762    7233.9837 
 3075000   -200604.91    1.7751847 0.0026325094    65.177062    7246.7798 
 3080000   -200709.84     1.766325 0.00029791989    65.206845    7259.5545 
 3085000   -200500.44    1.7784447 -0.0014009091     65.37163    7272.3137 
 3090000   -200860.06    1.7327174 0.00036895892    65.170623    7285.1183 
 3095000   -200803.43    1.8019512 -0.0027485203    65.120502    7297.9333 
 3100000   -200660.77    1.8493955 0.00071176999       65.137    7310.7024 
 3105000   -200515.34    1.8026315 -0.00088127836    65.341163    7323.4543 
 3110000   -200848.11    1.7304479 0.00044546458    65.250584    7336.2642 
 3115000   -200607.11    1.8074916 0.0011060676    65.296725    7349.0409 
 3120000   -200462.87    1.7328223 -0.0056440678    65.374516    7361.7886 
 3125000   -200631.17    1.8050357 0.00033101434    65.189511    7374.5581 
 3130000   -200582.77    1.8240048 0.00045948619    65.215343    7387.3627 
 3135000   -200577.41    1.7608507 -0.0050159502     65.22676    7400.1734 
 3140000   -200641.47    1.8092007 0.0024647821    65.166867    7412.9527 
 3145000   -200691.52     1.777159 -0.0057674469    65.349026    7425.7056 
 3150000   -200456.77    1.7721221 -0.00034371121    65.397977    7438.4992 
 3155000   -200499.14    1.7576321 -0.00067418122    65.385331    7451.2539 
 3160000   -200585.92    1.7902864 -0.0038489502    65.457005    7464.0383 
 3165000   -200873.67    1.8032138 0.0062205347    65.156436    7476.8325 
 3170000   -200766.41    1.8097278 0.00027507377    65.260557    7489.6415 
 3175000    -200650.8    1.7903286 0.0059220845    65.164865    7502.4099 
 3180000   -200871.51    1.7754468 0.0032980388    65.186787    7515.1607 
 3185000   -200522.37    1.7892003 0.0004087994    65.284271    7527.9298 
 3190000   -200882.79    1.8361583 -0.00033666496     65.38815    7540.6743 
 3195000   -200773.26    1.8102484 0.0010620659    65.257844    7553.4317 
 3200000   -200745.39     1.772406 0.0027513431    65.136785    7566.1967 
 3205000    -200631.4    1.7680374 -0.0043201631    65.231047    7579.0057 
 3210000   -200817.55    1.8011279   0.00278741    65.037306     7591.778 
 3215000   -200835.95    1.7785902 -0.0035255691    65.260658    7604.5743 
 3220000   -200718.06    1.8090148 0.00040514185    65.107738    7617.3434 
 3225000   -200594.42    1.7919134 0.0041171373    65.151281    7630.1051 
 3230000   -200754.47    1.7604755 0.0018533546    65.087379    7642.8771 
 3235000   -200595.71    1.8070734 0.0015236263    65.263325    7655.6387 
 3240000   -200797.94    1.7970506 -0.001809379    65.204055    7668.4199 
 3245000   -200940.83    1.7913644 -0.0045513989    65.178907    7681.1982 
 3250000   -200753.62    1.7411408 -0.0015809614    65.211907    7694.0165 
 3255000    -200699.3    1.7966744 0.0047404649    65.144531    7706.8025 
 3260000   -200645.13    1.7983501 0.0038110874     65.18779    7719.5794 
 3265000   -200636.45    1.7977566 0.0046567438    65.169607    7732.3268 
 3270000   -200510.46    1.7811341 0.0055833689    65.175331    7745.1148 
 3275000   -200700.38    1.7546736 0.00071915811    65.161142    7757.8731 
 3280000   -200740.44    1.8047474 -0.0029749218    65.249877    7770.6792 
 3285000   -200668.29    1.7825001 -0.0011918093     65.28935    7783.4337 
 3290000   -200863.35    1.7748161 -0.0017313154    65.259751    7796.2059 
 3295000   -200923.94     1.750084 -0.00068329147    65.265508    7808.9838 
 3300000    -200837.2    1.8030189 -0.00035611715    65.269522    7821.7388 
 3305000   -200835.61    1.7705946 0.00082362226    65.244349    7834.4744 
 3310000   -200666.01    1.7910434 0.00052140991    65.375877    7847.2661 
 3315000   -200666.34    1.7881523 0.00090058056    65.418327    7860.0299 
 3320000   -200532.37    1.7814076 -0.0013327913    65.407567    7872.7828 
 3325000   -200673.02    1.7224808 0.0015219527    65.328392    7885.5759 
 3330000    -200640.8      1.80342 -0.001565071    65.457454    7898.3762 
 3335000   -200638.87     1.771655 0.0039637746    65.443752    7911.1379 
 3340000   -200415.57     1.754729   0.00274468    65.302614     7923.899 
 3345000   -200493.86     1.764368 0.0047640292    65.303342    7936.7162 
 3350000   -200384.52       1.7489 0.0038219915    65.312824     7949.484 
 3355000   -200561.75    1.7709911 -0.0020739443    65.515781    7962.2896 
 3360000   -200549.39    1.8478289 0.0020540594    65.399875    7975.0752 
 3365000   -200724.64    1.7703607 0.0046628428    65.236686    7987.8385 
 3370000   -200896.95    1.8338474 0.0022380991    65.190049     8000.657 
 3375000   -200793.74    1.7638337 -0.004597804    65.310456      8013.41 
 3380000   -200795.14    1.7716345 -0.0004630674    65.210238    8026.1918 
 3385000   -200731.29    1.7840077 -0.0043635977    65.378335    8038.9284 
 3390000   -200763.95    1.8183399 0.0022266321    65.233819    8051.7154 
 3395000   -200647.05    1.7998729 0.0023205062    65.263234    8064.5173 
 3400000   -200635.35    1.8140739 -0.0024302086    65.332988    8077.2753 
 3405000   -200757.13     1.791296 0.00081158983    65.308343    8090.0471 
 3410000    -200568.9      1.75915 -0.0020193388    65.335763    8102.8103 
 3415000   -200709.42     1.836135 0.0018076284    65.186295    8115.5921 
 3420000   -200724.54     1.733209 -0.0029479159    65.165091    8128.3644 
 3425000   -200503.12    1.7219611  0.003958216    65.161724    8141.1305 
 3430000   -200659.64    1.7637113 0.00077035455    65.108887    8153.9189 
 3435000   -200772.53    1.7540974 0.0025020571    65.035261    8166.6388 
 3440000   -200661.86    1.7686204 0.00025457103     65.07543    8179.4055 
 3445000   -200708.25    1.7620382 -0.0044988426    65.143146     8192.157 
 3450000   -200674.38    1.8414555 0.0035895738    65.016158    8204.9458 
 3455000   -200625.54    1.7554082 0.00070898708    65.156863    8217.7026 
 3460000   -200665.82    1.7547757 -0.0009766732    65.191653    8230.4939 
 3465000   -200790.85     1.733962 0.0023853071    65.129723    8243.2834 
 3470000   -200709.29    1.8223126 -0.0026672169    65.217809    8256.0236 
 3475000   -200720.48    1.7789993 0.0040136288    65.146957    8268.8027 
 3480000   -200370.49    1.7612355 -0.0033535205    65.291666    8281.5686 
 3485000   -200572.13    1.8056316 0.0020884366     65.19002    8294.3868 
 3490000   -200366.27    1.7500702  0.002390217    65.223697    8307.1342 
 3495000   -200535.18    1.8033263 0.0033998696    65.212795    8319.9135 
 3500000   -200520.37    1.7894182 -0.00067890856    65.332352    8332.7333 
 3505000   -200640.17      1.77265 -0.0026941987    65.339751    8345.4899 
 3510000   -200547.08    1.7849227 0.0039221976    65.198126    8358.2555 
 3515000   -200690.38    1.7688441 0.0047360491    65.198168    8371.0462 
 3520000   -200685.75    1.7275891 -0.00061589707    65.295881    8383.8007 
 3525000   -200626.53    1.7965901 0.0008965618    65.143069    8396.5499 
 3530000   -200701.09    1.7725589 0.00030568778    65.164425    8409.2925 
 3535000   -200695.42    1.7614384 -0.0044594488    65.178575    8422.0997 
 3540000   -200633.52    1.8261337 0.0042658535    65.060471    8434.9093 
 3545000   -200636.52    1.7776357 -0.00022553455    65.062024    8447.7441 
 3550000   -200775.24    1.8092078 -0.0023275611    65.046754    8460.5437 
 3555000   -200869.49    1.7866547 0.00031947212    65.045091    8473.2772 
 3560000   -200601.99    1.7618852 -0.0062620838    65.140075    8486.0391 
 3565000   -200568.54    1.7638016 -0.0021182892    65.112969    8498.8399 
 3570000   -200756.79    1.8164844 -0.00013585459    65.136785     8511.597 
 3575000   -200637.96    1.7438149 -0.0028919409    65.122588    8524.4056 
 3580000   -200843.78    1.7817852 -0.0021006047    65.128131    8537.1695 
 3585000   -200638.24    1.7605254 -0.0016129223    65.262776    8549.9768 
 3590000   -200747.71    1.7581511 0.0050773287     65.21339    8562.7657 
 3595000   -200754.02    1.7422158 -0.00041663976    65.218262    8575.5205 
 3600000   -200792.25    1.7923735 -0.0057539051    65.283463    8588.2916 
 3605000   -200697.21    1.8288916 -0.0030449596    65.269586    8601.0648 
 3610000    -200792.7    1.7558704 0.0033341114    65.176274    8613.8059 
 3615000   -200659.94    1.8176515 -5.2926836e-05    65.285468    8626.5835 
 3620000   -200589.61    1.7829406 -0.0014977627    65.406502    8639.3622 
 3625000   -200746.63      1.77035 -0.0011281176    65.364619    8652.1343 
 3630000   -200781.71    1.7791827 -0.006976651      65.3898    8664.9131 
 3635000   -200747.84     1.823473 0.0030098887    65.310543     8677.705 
 3640000   -200947.45    1.7652146 0.0010129089     65.17837    8690.4467 
 3645000   -200833.33    1.7945939 -0.0021361773    65.264874    8703.1974 
 3650000   -200933.69    1.7452676 0.0014241054    65.203897    8715.9779 
 3655000   -200771.95    1.7915182  0.003605437    65.250404    8728.7236 
 3660000   -200637.32    1.7305646 0.00054244449    65.284799    8741.4982 
 3665000   -200873.14    1.7902795 -0.0031894983    65.314738    8754.2634 
 3670000    -200848.9    1.7877364 -0.0015780789    65.261934    8767.0328 
 3675000   -200860.76    1.7933499 0.0033146751    65.143093    8779.8462 
 3680000   -200743.74    1.7336132 0.00065986594    65.211789      8792.59 
 3685000    -200816.1    1.7564305 0.0045915641    65.085666    8805.3727 
 3690000   -200823.66    1.7822017 0.0021335477    65.141752    8818.1249 
 3695000    -200832.9    1.7864533 0.00011511421    65.181176    8830.9307 
 3700000   -200735.73    1.8416318 0.0069415657    65.207389    8843.7022 
 3705000   -200885.48    1.7939703 0.0020796595    65.222683    8856.5045 
 3710000   -200664.52    1.7642405 -0.0036367797    65.313931     8869.268 
 3715000      -200785    1.7594775 -0.004474993    65.373932    8882.0302 
 3720000   -200702.85     1.780613 0.0035614799    65.344067    8894.8364 
 3725000   -200694.46    1.7486956 0.0041721924    65.290854    8907.5554 
 3730000    -200639.3    1.8226012 0.0016020705    65.312312    8920.3099 
 3735000   -200715.31    1.7874124  0.001817254     65.37404    8933.0863 
 3740000   -200633.69    1.8110974 -0.0016930087    65.418957    8945.8494 
 3745000   -200817.12    1.7472823 0.0035914425    65.251596    8958.5932 
 3750000   -200756.72    1.7966786  0.002363924    65.306993    8971.3428 
 3755000   -200650.89     1.767017 0.0023011087    65.417937    8984.1192 
 3760000   -200725.76    1.7604073 -0.0070760348    65.385658    8996.8939 
 3765000   -200789.55    1.7858507 0.0017673006     65.12136    9009.6919 
 3770000   -200742.21     1.781983 -0.0015789662    65.098195    9022.5214 
 3775000    -200618.5     1.760633 -0.0038029591    65.263881    9035.3433 
 3780000   -200577.97    1.8101955 -0.0012398586    65.203885    9048.1105 
 3785000   -200750.94    1.7731044 0.0012300893      65.0406    9060.8616 
 3790000   -200568.37    1.7538788  0.001434783    65.120076    9073.6437 
 3795000   -200721.88    1.7934906 -0.0013488603    65.174672    9086.4449 
 3800000   -200850.54    1.7761597 -0.00077645979    65.244616    9099.2361 
 3805000   -200689.99    1.7460587 0.0004002429    65.252891     9112.001 
 3810000   -200727.39    1.6969433  0.005561679    65.173303    9124.7651 
 3815000   -200581.38    1.8180623 -0.00099548274    65.443549    9137.5395 
 3820000   -200645.46    1.8272537 -0.00077919532    65.336692    9150.2929 
 3825000   -200574.31    1.7664626 0.0049058969    65.217675    9163.0764 
 3830000   -200725.78    1.7687448 0.0022586172    65.272138    9175.8418 
 3835000   -200764.72    1.7465025 0.0002211036    65.280873    9188.5846 
 3840000   -200744.29    1.7488242 0.00016041526    65.363322    9201.3679 
 3845000   -200762.54    1.8445984 0.0016827872    65.224461     9214.126 
 3850000    -200731.6    1.7612486 -0.0037794733     65.25594    9226.8937 
 3855000   -200600.52    1.7684508 -0.0024353556     65.30479    9239.7031 
 3860000   -200714.69    1.7633677 -0.001430387    65.312782    9252.4417 
 3865000   -200633.75    1.8085141 -0.00053799768    65.348555    9265.2667 
 3870000   -200481.39    1.7443969 -0.0045958952      65.4543    9278.0004 
 3875000   -200634.75    1.7779438 -0.0030591659    65.437578    9290.7636 
 3880000   -200659.99    1.7816781 0.0015607887    65.287239    9303.5447 
 3885000   -200770.56    1.8278461 0.00076764274    65.251032    9316.3034 
 3890000   -200628.21    1.7420152  0.001768106    65.255542    9329.0603 
 3895000   -200676.17    1.8257266 -0.0059641796     65.41181    9341.8369 
 3900000   -200554.06    1.8039821 -0.0012370567    65.238768    9354.6264 
 3905000   -200568.33    1.7323523 -0.0064837387    65.232141    9367.4308 
 3910000   -200613.61    1.8128482 0.0030697669    65.170494    9380.2181 
 3915000   -200846.62    1.8227373 0.00065427464    65.135265    9393.0318 
 3920000    -200908.5    1.7577008 0.0011562442    65.071315    9405.8248 
 3925000   -200609.06    1.7634664 0.0015797502    65.101479    9418.5718 
 3930000   -200710.87    1.7731206 0.0030462064    65.087064    9431.3527 
 3935000   -200580.42    1.8018339 0.0032478031    65.054564    9444.1287 
 3940000    -200408.1     1.774783 0.0008891965    65.123897    9456.9198 
 3945000    -200571.8     1.815479 -0.0005455041    65.255596    9469.6986 
 3950000   -200661.16    1.8128134 -0.0017945299    65.288182    9482.4993 
 3955000   -200627.29    1.8006863 -0.0024476115    65.317758    9495.2816 
 3960000   -200880.82    1.7403465  0.001052456    65.242943    9508.0338 
 3965000   -200640.02    1.7416769 -0.0006293423    65.314699    9520.7583 
 3970000    -200690.4    1.8359572 0.0022675649    65.280601    9533.5024 
 3975000   -200489.95    1.8112527 0.0023338678    65.406087    9546.2798 
 3980000    -200658.5    1.7499086 0.0014887095    65.320413    9559.0322 
 3985000   -200587.21    1.8186962 -0.00015230409    65.331994    9571.7781 
 3990000   -200614.88    1.7385745 -0.0035414608    65.386307    9584.5744 
 3995000   -200468.21    1.7284303 0.0010324445    65.320363    9597.3613 
 4000000   -200647.52    1.8274633 -0.0044122441    65.309305    9610.1315 
 4005000   -200492.69    1.7483737 -0.00024460814    65.260249    9622.8984 
 4010000   -200763.85    1.7499179 0.0010923682    65.224868     9635.674 
 4015000   -200560.41    1.7776059 0.0046958676    65.261118    9648.4488 
 4020000   -200682.32    1.7757046 0.0075457592    65.184319    9661.2294 
 4025000    -200460.7    1.8261497  0.001928397    65.419266    9673.9928 
 4030000   -200671.24    1.7234035 -0.0032798163    65.402617    9686.7289 
 4035000   -200766.86    1.8080405 0.0010151944    65.294305    9699.4801 
 4040000   -200601.12    1.7388397 -0.0015572342    65.328218    9712.2531 
 4045000   -200527.97    1.8156024 -0.0032786185    65.378503    9725.0147 
 4050000   -200496.14     1.786182 -0.0049658364    65.501035    9737.7965 
 4055000   -200571.88    1.8065753 0.0068029608    65.242394     9750.577 
 4060000   -200616.56    1.8167175 -0.0033480469    65.439727    9763.3651 
 4065000   -200631.34    1.7887762 -0.0069811229    65.507258    9776.1339 
 4070000   -200609.43    1.7456726 0.00070019032    65.324516    9788.9021 
[...]
 9085000   -200351.44    1.7498136 0.0022779706    65.341772    22605.138 
 9090000   -200579.33    1.7897734 0.00092122428    65.358102    22617.903 
 9095000    -200460.7    1.8151922 0.0027176211    65.374912    22630.671 
 9100000   -200802.43    1.7963671 0.0042056968    65.162015    22643.479 
 9105000   -200573.44    1.7457081 -0.0016227292    65.359832    22656.235 
 9110000   -200731.57    1.8109739 -0.0027417855    65.439679    22668.986 
 9115000   -200525.29    1.7520476 -0.0015350472    65.348905    22681.751 
 9120000   -200570.23    1.8038974 0.0055333809    65.224685    22694.488 
 9125000    -200715.9    1.7459884 0.00081395859    65.340772    22707.261 
 9130000   -200505.74    1.8153221 -0.0014559143     65.36644    22720.021 
 9135000   -200522.21    1.7703574 -0.0012631532    65.335486    22732.813 
 9140000   -200781.05    1.7796114 0.0030684711    65.183737    22745.553 
 9145000   -200570.27    1.8044175 -0.0021704262    65.428843    22758.278 
 9150000   -200860.53    1.7807529  -0.00391968    65.327712    22771.051 
 9155000   -200843.34    1.7816948 -0.00022963026    65.260274    22783.813 
 9160000   -200597.33    1.7564631 -0.0036590893    65.311202    22796.573 
 9165000   -200397.68    1.7699991 0.0055252479    65.162532    22809.339 
 9170000   -200414.74    1.8021171 -0.0039062906    65.313144     22822.13 
 9175000   -200540.36     1.775903 -0.0045358961    65.327816    22834.873 
 9180000   -200539.89    1.7620785 -0.0043792333    65.317942    22847.659 
 9185000   -200525.68    1.8159205 -0.0026883815    65.352471    22860.441 
 9190000    -200811.1    1.7577085 0.0050215393    65.149376    22873.211 
 9195000   -200849.74    1.7773017 -0.0031618789     65.30967    22885.954 
 9200000   -200648.03    1.8108244 -0.0031486907    65.416375    22898.735 
 9205000   -200507.56    1.7999572 0.0013342912    65.443953    22911.478 
 9210000   -200651.81     1.776107 -0.0014356632    65.361668    22924.227 
 9215000   -200750.13    1.7915186 0.0010931819    65.348964     22936.97 
 9220000   -200512.81    1.7647362 0.00040224929    65.362124    22949.721 
 9225000   -200681.54    1.7411291 0.0018622658    65.385297    22962.481 
 9230000   -200554.76    1.7485984 0.0012658112    65.344836    22975.259 
 9235000   -200677.56    1.7743332 0.0012369177    65.445423    22988.018 
 9240000   -200517.57    1.7693493 -0.002497709    65.421728    23000.795 
 9245000   -200534.32    1.7752586 -0.00027177676    65.396165    23013.549 
 9250000   -200593.36    1.7778296 -0.0022180085    65.427045    23026.331 
 9255000   -200628.28    1.7325293 -0.0013118364     65.31859    23039.094 
 9260000   -200675.33    1.7478593 0.00085746769    65.323155    23051.854 
 9265000   -200624.12    1.8015523 -9.6920843e-05    65.339382    23064.635 
 9270000   -200706.67     1.791712 -0.0025150291    65.346956    23077.423 
 9275000   -200542.55    1.7993708 -0.00028307353    65.359764    23090.175 
 9280000   -200624.16    1.7516534 0.0018867043    65.288757     23102.92 
 9285000   -200797.25    1.7543541 -4.6412651e-05    65.269847    23115.655 
 9290000   -200738.55    1.8461937  0.001680686    65.209629    23128.461 
 9295000   -200642.72    1.7450649 -0.0055417651    65.366583    23141.202 
 9300000   -200715.59    1.7454456 0.0022262041    65.260434    23153.945 
 9305000   -200909.21    1.7546032 -0.0022191868    65.198836    23166.712 
 9310000   -200640.42    1.7987146 -0.0018283808    65.247134    23179.473 
 9315000   -200959.83    1.8087795 -0.00078968877    65.178925    23192.242 
 9320000   -200868.61    1.7838878 -0.0038817606    65.236092    23205.036 
 9325000   -200637.99    1.7383974 0.0040990783    65.151667    23217.849 
 9330000   -200624.26    1.7100344 0.0024791721    65.103201    23230.645 
 9335000   -200615.99    1.7584001 0.0019316907     65.10528     23243.44 
 9340000   -200638.56    1.7774807 0.00081699575      65.3032    23256.238 
 9345000   -200832.75    1.8585414 0.0023733267    65.142642    23268.974 
 9350000   -200810.76    1.8010756 0.0022206763    65.092108    23281.795 
 9355000   -200797.31    1.7609794 -0.0018231989    65.133793    23294.627 
 9360000      -200911    1.7347914 0.0034462056    64.941024    23307.423 
 9365000   -200706.57    1.7311278 0.0023844365    65.025324    23320.192 
 9370000   -200727.29    1.7911102 -0.0031842433    65.061149    23333.012 
 9375000   -200680.13    1.7636772 -0.0024524415    65.115361    23345.831 
 9380000   -200745.17    1.8043292 0.00069317757    65.126402    23358.654 
 9385000   -200876.33    1.7927744 -0.0093696898    65.307552    23371.451 
 9390000   -200835.64    1.8013628 -0.00081022147    65.261831    23384.212 
 9395000   -200834.77    1.7548809 0.0022847887    65.173203    23396.987 
 9400000   -200707.58    1.7895858 0.0024892802    65.199304    23409.752 
 9405000   -200794.46    1.8169945 -0.0016910715    65.253614    23422.525 
 9410000   -200577.78    1.7825138 0.00026054137    65.120946    23435.283 
 9415000   -200729.19    1.7969218 0.0036215085    65.115799    23448.056 
 9420000   -200756.46    1.7827497 -0.0023388051    65.199524    23460.874 
 9425000   -200676.32    1.8047302 -0.00077269509    65.155901    23473.679 
 9430000   -200706.55    1.7726968 -0.0024732879    65.170208    23486.427 
 9435000   -200771.75    1.7732337 0.0044518015    65.059004    23499.228 
 9440000   -200507.39    1.7516309 0.00039032314    65.122974     23511.99 
 9445000   -200526.44    1.8312991 0.00054781721    65.210508    23524.769 
 9450000   -200704.39    1.7686541 -0.00025995453    65.171155    23537.545 
 9455000   -200572.58    1.7890709 0.0040969357    65.046975     23550.31 
 9460000   -200828.87    1.7960175 0.00020552597    65.065014    23563.089 
 9465000   -200721.14    1.7818476 -0.0030853836    65.076541    23575.879 
 9470000   -200591.25    1.7732003  0.006896063    64.921482    23588.681 
 9475000    -200680.9    1.7706885 -0.0034098807    65.036482    23601.464 
 9480000   -200450.36    1.7813367 -0.00063413031    65.256966     23614.23 
 9485000   -200536.55    1.7809404 0.0056035234     65.07958    23627.023 
 9490000   -200636.56    1.7241747 -0.0037957093    65.111291    23639.815 
 9495000   -200603.16    1.7698341 -0.0020764084    65.043387    23652.628 
 9500000   -200695.42    1.7578463 -0.0019135398    65.137931    23665.398 
 9505000   -200689.01    1.7924986 0.00090756795     65.09902    23678.187 
 9510000   -200777.91    1.7558713 -0.0021832931    65.146191    23690.978 
 9515000   -200713.17    1.7731711 -0.00058347756    65.074044    23703.789 
 9520000   -200566.67    1.7503097 0.0011486824    65.131363    23716.608 
 9525000   -200609.11    1.8211074 0.0020575294    65.192443    23729.418 
 9530000   -200654.99    1.7737509 -0.0006308767    65.329857    23742.191 
 9535000   -200747.96    1.8352352 -0.0017050792    65.194232    23754.982 
 9540000   -200628.21    1.7519108 0.0020055328    65.127804    23767.771 
 9545000   -200802.32    1.7533944 0.0045630438    65.153349    23780.545 
 9550000   -200819.12    1.7532806 0.0017216566    65.178922    23793.341 
 9555000   -200773.35     1.752901 -7.852693e-05    65.192898    23806.129 
 9560000   -200567.94    1.7960993 0.0042098749     65.04916    23818.895 
 9565000   -200582.83    1.7810514 -0.0021524656     65.23945    23831.686 
 9570000   -200450.58    1.7646137 0.0015647113    65.264818    23844.477 
 9575000   -200544.78    1.7913605 0.0013705211    65.159409     23857.26 
 9580000   -200747.59    1.7214086 -0.00016507249    65.117616    23870.013 
 9585000   -200532.54    1.7636977 -0.0030941201    65.185826    23882.829 
 9590000   -200709.71    1.8019465 0.0011020602    65.035026    23895.649 
 9595000   -200794.63    1.7619816 -0.0027975785     65.08395    23908.471 
 9600000   -200602.39    1.7962917 -0.0011401872    65.145635     23921.29 
 9605000   -200692.47    1.7678235 -0.0022042212    65.229157    23934.065 
 9610000   -200669.67    1.7816894 0.0020390196    65.170709    23946.821 
 9615000   -200687.12    1.7232302 0.00024279791    65.209923    23959.574 
 9620000    -200529.7    1.8268697 0.00032923476    65.278747    23972.368 
 9625000   -200587.58     1.792769 0.0029057149    65.234189    23985.165 
 9630000   -200538.97    1.7628693 -0.004037152    65.364677    23997.923 
 9635000   -200855.36    1.7744714 -0.00068685546    65.233392    24010.708 
 9640000    -200812.1    1.7825259 0.0014851674    65.116365    24023.464 
 9645000   -200725.85    1.7328321 -0.0036948765    65.252718    24036.255 
 9650000   -200829.07    1.7608636 0.0025451574    65.148062    24049.054 
 9655000   -200976.58     1.798989 0.0047984895    65.017597    24061.854 
 9660000   -200845.18    1.7688484 0.0020507944    65.147009    24074.632 
 9665000   -200670.19    1.7322682 -0.00017372105    65.137797    24087.441 
 9670000    -200686.1    1.7786667 -0.0041709457    65.197152    24100.202 
 9675000   -200706.45    1.7508933 -0.0043881205    65.247483    24113.033 
 9680000   -200634.18    1.8005543 -0.0006610668    65.165883    24125.846 
 9685000   -200943.52    1.7487083 0.0019725331    65.127087    24138.624 
 9690000   -200736.12    1.7270415 -0.0031590905     65.30731    24151.423 
 9695000   -200786.18    1.8111772 -0.0051057247    65.279617    24164.198 
 9700000   -200700.93    1.8053276 -0.0018215807    65.281915    24176.996 
 9705000   -200561.27    1.7613838 -0.0045824551    65.269083    24189.767 
 9710000   -200652.63     1.760411 3.8606077e-05    65.195652    24202.548 
 9715000   -200685.84    1.7785382 -0.0025528111    65.169658    24215.326 
 9720000   -200876.68    1.7294365 0.00050366444    65.139055    24228.122 
 9725000   -200746.34    1.7846298 0.00051922796    65.142711    24240.854 
 9730000   -200719.43    1.7575051 -0.0018964739    65.255265    24253.603 
 9735000   -200638.97     1.723939 -0.00051761035    65.280248    24266.412 
 9740000   -200726.93    1.7941597 0.0027342657    65.069387    24279.178 
 9745000   -200763.37    1.7815249 0.0015999317    65.135215    24291.976 
 9750000   -200727.96    1.7560269 0.0023950641    65.130397    24304.734 
 9755000   -200714.76    1.7782591 0.0028197131     65.21148    24317.489 
 9760000   -200870.82    1.7974011 -0.001891379    65.259307    24330.276 
 9765000   -200822.17    1.7187307 0.00082251402    65.091952    24343.039 
 9770000   -200741.11    1.7880197 0.0003311601    65.214643    24355.832 
 9775000   -200672.17    1.7511801 -0.00086854806    65.248739    24368.592 
 9780000   -200685.82    1.7840451 -0.0011702026    65.230231    24381.355 
 9785000   -200754.77    1.7226647 0.0033627403     65.11106     24394.12 
 9790000   -200777.97    1.8083484 -3.8429546e-05    65.162974    24406.925 
 9795000   -200777.68    1.7783307 -0.0021743089    65.162173    24419.705 
 9800000   -200601.77    1.7821781 -0.0048686564    65.194317    24432.523 
 9805000   -200570.01    1.8133773 0.0024425662    65.122157     24445.29 
 9810000   -200678.97    1.7675444 -0.0015324661    65.108296    24458.107 
 9815000   -200674.73    1.8613689 0.00037083019    65.046742    24470.888 
 9820000   -200816.83      1.79109 -0.0014429635    65.107333    24483.707 
 9825000   -200731.63    1.8472711 0.0027443805    64.988261    24496.492 
 9830000   -200638.45    1.7856821 -0.0027137527    65.116362    24509.311 
 9835000    -200657.2    1.7910599 -0.0019871265    65.160844    24522.112 
 9840000   -200676.56    1.7305985 -0.0012701936    65.136663    24534.942 
 9845000   -200700.05    1.7822693 0.0028242356    65.116254    24547.763 
 9850000   -200611.04    1.7571586 -0.0015316681    65.306684    24560.549 
 9855000   -200614.17    1.7688682  0.005027484    65.212642    24573.344 
 9860000   -200681.35     1.784976 -0.0052463788    65.343945    24586.101 
 9865000   -200565.75    1.7829236 0.0020551834     65.24238    24598.862 
 9870000   -200899.18    1.7474395 0.00083154928    65.154534    24611.638 
 9875000   -200594.32    1.7758487 0.0023046118    65.223331    24624.446 
 9880000   -200724.31    1.7510463 -8.9573328e-05    65.219513    24637.257 
 9885000   -200780.16    1.7691089 -0.00017136704    65.211479    24650.041 
 9890000   -200931.98    1.7722578 0.0022065251    65.154753    24662.842 
 9895000   -200757.51    1.7388418 -0.003938731    65.293881    24675.652 
 9900000   -200660.73    1.8175392 -0.0027496723    65.285582    24688.479 
 9905000    -200869.4    1.7898488 0.0044831467    65.164885    24701.255 
 9910000   -200706.09    1.7574808 -0.0013643985    65.258002    24714.066 
 9915000   -200733.19    1.7207517 0.00042797764    65.183916     24726.88 
 9920000   -200701.65    1.7514713 -0.0050572983    65.328227     24739.66 
 9925000   -200686.78    1.7736042 -0.0019972412    65.324456    24752.434 
 9930000    -200624.9     1.801451 -0.0025173612    65.377678    24765.181 
 9935000   -200694.33    1.7849632 0.0017367395    65.242215    24777.975 
 9940000   -200641.39    1.7668325 0.00052138643    65.335415    24790.708 
 9945000   -200697.35     1.754779 0.0016944306    65.272964    24803.465 
 9950000   -200695.35    1.8286671 -0.0006378157    65.390678     24816.22 
 9955000   -200865.41    1.7703789 -0.0011698297    65.339683    24828.978 
 9960000   -200751.38    1.7962834  0.002474421    65.316463     24841.75 
 9965000    -200712.9    1.7607966 0.00099626349    65.275845    24854.525 
 9970000   -200703.34    1.7529242 -0.00089145346    65.292481    24867.293 
 9975000   -200622.53    1.7885342  0.006361343    65.277615    24880.043 
 9980000   -200586.34    1.7643326 -0.0016159577    65.468844    24892.808 
 9985000    -200612.1    1.7961667 0.0028363841    65.298063    24905.562 
 9990000   -200859.11    1.7828421 -3.1694995e-05    65.303158    24918.338 
 9995000   -200833.51    1.7592461 0.00096104796    65.251688    24931.104 
10000000   -200743.63    1.7718217 0.0023654189    65.143757    24943.853 
10005000    -200683.4    1.7804793 -0.003868428    65.284656    24956.638 
10010000   -200665.41    1.7790633 0.0018715007    65.201946    24969.409 
10015000   -200406.69    1.7490144 -0.0057038779    65.367993     24982.15 
10020000   -200571.47    1.7808166 0.0010152279    65.259461    24994.969 
10025000   -200375.34    1.7665596 -0.002480111    65.299535    25007.723 
10030000   -200683.09    1.7933007 -0.0018367242    65.226685    25020.512 
10035000   -200679.45    1.7805968 -1.7837158e-05    65.167924     25033.26 
10040000   -200565.18    1.7972042 0.0026631716    65.152107    25045.983 
10045000    -200713.3    1.7775812 0.0028674571    65.087579    25058.754 
10050000   -200435.19    1.7660942 2.1477841e-05    65.132382    25071.497 
10055000   -200540.56    1.8043627 0.00054662739    65.189603    25084.239 
10060000    -200578.3    1.7565914 -0.0022372395    65.195422    25096.974 
10065000   -200478.71    1.7417799 0.0013380333    65.192072    25109.714 
10070000    -200606.5    1.7577458 0.0027633467    65.130713    25122.509 
10075000   -200499.95      1.80598 -0.0011876548    65.237627     25135.29 
10080000   -200571.52    1.8252625 -0.0015447983    65.225291     25148.12 
10085000   -200629.78    1.6938915 0.00031401383    65.146292    25160.879 
10090000   -200612.53    1.7503445 0.00053737505    65.275429    25173.661 
10095000   -200756.83    1.7876237 0.0038402315    65.174198    25186.419 
10100000   -200585.36    1.7704258 0.00039592891    65.306056    25199.189 
10105000   -200510.45    1.7599994 -0.0033379756    65.441043    25211.964 
10110000   -200642.26    1.7309536 -0.0015853749    65.283031    25224.742 
10115000   -200681.51    1.7674555 -0.0019637101     65.30358    25237.499 
10120000   -200593.79    1.7257095 0.0015366592    65.199907    25250.265 
10125000   -200645.72    1.7992989 0.0008880241    65.287738    25263.004 
10130000    -200642.5    1.7788214 -0.0045492662      65.3607    25275.773 
10135000   -200697.92     1.779198 -0.0042910849    65.445312    25288.534 
10140000   -200645.36    1.8118335 -0.0026260294    65.333585    25301.288 
10145000   -200710.36    1.8213579 -0.0025419072    65.413458    25314.063 
10150000    -200634.6    1.7876772 2.3994078e-05    65.401212    25326.839 
10155000   -200788.32    1.7501428 -0.0018723505     65.46717    25339.575 
10160000   -200666.69    1.7914813 -0.0015440249    65.421992    25352.307 
10165000   -200566.39    1.8269653 0.0020778698    65.420168     25365.02 
10170000   -200645.01    1.7549032 -0.00018208084    65.302162    25377.785 
10175000   -200549.92    1.7821382 0.0059315019     65.21429    25390.517 
10180000   -200506.52    1.7578756 0.0053203813     65.22242    25403.264 
10185000   -200702.11    1.7968009 0.0091435253    65.200543    25416.028 
10190000    -200529.2    1.7835008 0.0044917517    65.375672    25428.762 
10195000   -200646.03    1.7745531  0.001867462    65.435313    25441.511 
10200000   -200680.21    1.8034588 -0.0055135359    65.557246    25454.281 
10205000   -200695.61    1.7916133 0.0083580731    65.360727    25467.034 
10210000   -200725.54    1.7517179 0.0030214561    65.434925    25479.768 
10215000    -200642.9    1.7247293 -0.0036625332    65.484019    25492.516 
10220000   -200779.01    1.8400974 0.00049202879    65.331368    25505.235 
10225000   -200644.52    1.7594713 -0.0011710593    65.387265    25517.986 
10230000   -200710.51    1.8267465 0.0024607838    65.348728    25530.754 
10235000   -200769.26    1.8292386 -0.002336807    65.463061    25543.491 
10240000   -200822.68    1.7710263 0.0017854654    65.348417    25556.226 
10245000    -200593.3    1.8154647 0.0025614949    65.370177    25568.995 
10250000    -200586.2    1.8288279 -0.00022457996    65.469001     25581.74 
Loop time of 25581.7 on 8 procs for 10000000 steps with 2304 atoms

Performance: 33774.090 tau/day, 390.904 timesteps/s
95.7% CPU use with 8 MPI tasks x 1 OpenMP threads

MPI task timing breakdown:
Section |  min time  |  avg time  |  max time  |%varavg| %total
---------------------------------------------------------------
Pair    | 4038.5     | 4484.5     | 5039.9     | 472.3 | 17.53
Bond    | 0.90162    | 1.028      | 1.3025     |  14.6 |  0.00
Kspace  | 10800      | 10929      | 11035      |  80.5 | 42.72
Neigh   | 658.87     | 670.14     | 696.52     |  56.7 |  2.62
Comm    | 981.01     | 1009.6     | 1027.6     |  48.5 |  3.95
Output  | 0.86944    | 0.89949    | 1.1056     |   8.2 |  0.00
Modify  | 6131.6     | 7755.5     | 8649.9     |1066.2 | 30.32
Other   |            | 730.7      |            |       |  2.86

Nlocal:        288.000 ave         295 max         280 min
Histogram: 1 1 1 1 0 0 0 0 3 1
Nghost:        5875.12 ave        5895 max        5853 min
Histogram: 2 0 0 1 0 1 1 0 2 1
Neighs:         0.00000 ave           0 max           0 min
Histogram: 8 0 0 0 0 0 0 0 0 0
FullNghs:      240832.0 ave      247904 max      233316 min
Histogram: 1 1 2 0 0 0 0 1 2 1

Total # of neighbors = 1926654
Ave neighs/atom = 836.22135
Ave special neighs/atom = 0.0000000
Neighbor list builds = 82359
Dangerous builds = 0

## ----- deletion for small NPs and salt ----- ##
#    reset_timestep 0

#    label checking

#    compute     peatom    all   pe/atom
#    variable    exppe    atom    exp(2*c_peatom/${ttemp})
#    compute     aveS    small   reduce ave v_exppe
#    compute     aveCl   anion   reduce ave v_exppe
#    compute     aveNa   cation  reduce ave v_exppe

#    fix AVE all ave/time 5 ${repeat} ${freq} c_aveS c_aveCl file average.dat
#    thermo 10000
#    thermo_style custom step pe c_press lx cpu
#    thermo_modify norm no flush yes
#    fix AVE all ave/time 1 ${repeat} ${freq} c_aveS c_aveCl c_aveNa
#    variable    chempNP equal ${ttemp}*(ln(v_numS/vol)+ln(v_numCl/vol)*25+ln(f_AVE[1])+ln(f_AVE[2])*25)
#    variable    chempS  equal ${ttemp}*(ln(v_numNa/vol)+ln(v_numCl/vol)+ln(f_AVE[2])+ln(f_AVE[3]))
#    timestep 0.0005
#    run ${freq}

#    print "done! ChempNP= ${chempNP}" append potential.dat
Total wall time: 7:27:09
