LAMMPS (27 Oct 2021)
OMP_NUM_THREADS environment is not set. Defaulting to 1 thread. (src/comm.cpp:98)
  using 1 OpenMP thread(s) per MPI task
package gpu 0
package gpu 2 neigh no pair/only on
#Lammps gcmc code for electrolytes

## ----- Simulation times ----- ##
    variable t_nve      equal 50000             #nve/limit
    variable t_deform 	equal 50000            #nvt
    variable t_pressed 	equal 50000            #nvt
    variable t_relaxed 	equal 100000            #nvt
    variable t_eq 	equal 10000000           #nvt

    variable smallc	equal 10
    variable bigc	equal -80
    variable numB	equal 256
    variable numS	equal ${numB}*8
    variable numS	equal 256*8
#    variable numCl	equal ${numS}*${smallc}+${bigc}*${numB}

## ----- Environment setting ----- ##
    boundary p p p
    atom_style full

## ----- System Variables  ----- ##
    variable    ttemp       equal   $b          	#reduced temperature
    variable    ttemp       equal   1.6          	
    variable    ppress      equal   0			#osmetic pressure
    variable    cutoff_pppm equal   27.8	        #cutoff for the real part of pppm
    variable	ipress      equal   0.1

    variable    bigd        equal   10                      #LJ sigmas
    variable    smalld      equal   2
#    variable    Cl_d        equal   0.4
    variable    d_bs        equal   0.5*(${bigd}+${smalld})
    variable    d_bs        equal   0.5*(10+${smalld})
    variable    d_bs        equal   0.5*(10+2)
#    variable    d_sNa       equal   0.5*(v_smalld+v_Na_d)
#    variable    d_sCl       equal   0.5*(v_smalld+v_Cl_d)
#    variable    d_bNa       equal   0.5*(v_bigd+v_Na_d)
#    variable    d_bCl       equal   0.5*(v_bigd+v_Cl_d)
#    variable    d_NaCl      equal   0.5*(v_Na_d+v_Cl_d)

    variable    cut_small   equal   ${smalld}*1.122462	    #cutoffs for LJ
    variable    cut_small   equal   2*1.122462	    
    variable    cut_big     equal   ${bigd}*1.122462
    variable    cut_big     equal   10*1.122462
#    variable    cut_Na_d    equal   ${Na_d}*1.122462
#    variable    cut_Cl_d    equal   ${Cl_d}*1.122462
    variable    cut_bs      equal   ${d_bs}*1.122462
    variable    cut_bs      equal   6*1.122462
#    variable    cut_bNa     equal   ${d_bNa}*1.122462
#    variable    cut_bCl     equal   ${d_bCl}*1.122462
#    variable    cut_sNa     equal   ${d_sNa}*1.122462
#    variable    cut_sCl     equal   ${d_sCl}*1.122462
#    variable    cut_NaCl    equal   ${d_NaCl}*1.122462

## ----- Initialization and grouping ----- ##
    read_data config_fcc8.dat
Reading data file ...
  orthogonal box = (-80.000000 -80.000000 -80.000000) to (80.000000 80.000000 80.000000)
  2 by 2 by 2 MPI processor grid
  reading atoms ...
  2304 atoms
Finding 1-2 1-3 1-4 neighbors ...
  special bond factors lj:    0        0        0       
  special bond factors coul:  0        0        0       
     0 = max # of 1-2 neighbors
     0 = max # of 1-3 neighbors
     0 = max # of 1-4 neighbors
     1 = max # of special neighbors
  special bonds CPU = 0.017 seconds
  read_data CPU = 0.039 seconds

    set type 1 charge   ${bigc}    	#large NPs
    set type 1 charge   -80    	
Setting atom values ...
  256 settings made for charge
    set type 2 charge   ${smallc}       #small NPs
    set type 2 charge   10       
Setting atom values ...
  2048 settings made for charge
#    set type 3 charge   1       #Na+
#    set type 3 charge   -1      #Cl-

    mass    *   0.2
    mass    1   25.0

    group big       type 1
256 atoms in group big
    group small     type 2
2048 atoms in group small
#    group cation    type 3
#    group anion     type 3

## ----- Interaction setting ----- ##
    pair_style lj/cut/coul/long ${cut_big} ${cutoff_pppm} #lj/cut/coul/long/soft 2.0 0.5 5.0 ${cut_small} ${cutoff_pppm}
    pair_style lj/cut/coul/long 11.22462 ${cutoff_pppm} 
    pair_style lj/cut/coul/long 11.22462 27.8 
    #Between regular particles (4*5/2=10)
    pair_coeff  1   1   2.0     ${bigd}     ${cut_big}	        # big-big
    pair_coeff  1   1   2.0     10     ${cut_big}	        
    pair_coeff  1   1   2.0     10     11.22462	        
    pair_coeff  2   2   2.0     ${smalld}   ${cut_small}	    # small-small
    pair_coeff  2   2   2.0     2   ${cut_small}	    
    pair_coeff  2   2   2.0     2   2.244924	    
#    pair_coeff  3   3   2.0     ${Na_d}     ${cut_Na_d}		    # Na-Na
#    pair_coeff  3   3   2.0     ${Cl_d}     ${cut_Cl_d}       	# Cl-Cl
    pair_coeff  1   2   2.0     ${d_bs}     ${cut_bs}	        # big-small
    pair_coeff  1   2   2.0     6     ${cut_bs}	        
    pair_coeff  1   2   2.0     6     6.734772	        
#    pair_coeff  1   3   2.0     ${d_bNa}    ${cut_bNa}	        # big-Na
#    pair_coeff  1   3   2.0     ${d_bCl}    ${cut_bCl}	        # big-Cl
#    pair_coeff  2   3   2.0     ${d_sNa}    ${cut_sNa}       	# small-Na
#    pair_coeff  2   3   2.0     ${d_sCl}    ${cut_sCl}       	# small-Cl
#    pair_coeff  3   4   2.0     ${d_NaCl}   ${cut_NaCl}       	# Na-Cl
#    pair_modify pair lj/cut/coul/long shift yes
    pair_modify shift yes
    kspace_style	pppm	5.0e-4

## ----- Simulation setup ----- ##
    neighbor 1.2 bin
    neigh_modify delay 0 every 1 check yes #one 2000

    compute temp all temp
    compute press all pressure temp

    thermo 5000
    thermo_style custom step pe temp c_press lx cpu
    thermo_modify norm no flush yes

   # dump moldump all custom 50000 ${xyzname} id type q x y z

## ----- Thermalization of system ----- ##
    timestep 0.0002

    fix 1 all nve/limit 0.05
    fix 2 big langevin ${ttemp} ${ttemp} 0.2 1234567
    fix 2 big langevin 1.6 ${ttemp} 0.2 1234567
    fix 2 big langevin 1.6 1.6 0.2 1234567
    fix 3 small langevin ${ttemp} ${ttemp} 0.008 123456
    fix 3 small langevin 1.6 ${ttemp} 0.008 123456
    fix 3 small langevin 1.6 1.6 0.008 123456

    fix freeze big setforce 0.0 0.0 0.0
    fix zeromom all momentum 1 linear 1 1 1 angular
    run ${t_nve}
    run 50000

CITE-CITE-CITE-CITE-CITE-CITE-CITE-CITE-CITE-CITE-CITE-CITE-CITE

Your simulation uses code contributions which should be cited:

- GPU package (short-range, long-range and three-body potentials):

@Article{Brown11,
 author = {W. M. Brown, P. Wang, S. J. Plimpton, A. N. Tharrington},
 title = {Implementing Molecular Dynamics on Hybrid High Performance Computers - Short Range Forces},
 journal = {Comp.~Phys.~Comm.},
 year =    2011,
 volume =  182,
 pages =   {898--911}
}

@Article{Brown12,
 author = {W. M. Brown, A. Kohlmeyer, S. J. Plimpton, A. N. Tharrington},
 title = {Implementing Molecular Dynamics on Hybrid High Performance Computers - Particle-Particle Particle-Mesh},
 journal = {Comp.~Phys.~Comm.},
 year =    2012,
 volume =  183,
 pages =   {449--459}
}

@Article{Brown13,
 author = {W. M. Brown, Y. Masako},
 title = {Implementing Molecular Dynamics on Hybrid High Performance Computers – Three-Body Potentials},
 journal = {Comp.~Phys.~Comm.},
 year =    2013,
 volume =  184,
 pages =   {2785--2793}
}

@Article{Trung15,
 author = {T. D. Nguyen, S. J. Plimpton},
 title = {Accelerating dissipative particle dynamics simulations for soft matter systems},
 journal = {Comput.~Mater.~Sci.},
 year =    2015,
 volume =  100,
 pages =   {173--180}
}

@Article{Trung17,
 author = {T. D. Nguyen},
 title = {GPU-accelerated Tersoff potentials for massively parallel Molecular Dynamics simulations},
 journal = {Comp.~Phys.~Comm.},
 year =    2017,
 volume =  212,
 pages =   {113--122}
}

@Article{Nikolskiy19,
 author = {V. Nikolskiy, V. Stegailov},
 title = {GPU acceleration of four-site water models in LAMMPS},
 journal = {Proceeding of the International Conference on Parallel Computing (ParCo 2019), Prague, Czech Republic},
 year =    2019
}

CITE-CITE-CITE-CITE-CITE-CITE-CITE-CITE-CITE-CITE-CITE-CITE-CITE

PPPM initialization ...
  using 12-bit tables for long-range coulomb (src/kspace.cpp:340)
  G vector (1/distance) = 0.11438956
  grid = 60 60 60
  stencil order = 5
  estimated absolute RMS force accuracy = 0.00041211524
  estimated relative force accuracy = 0.00041211524
  using double precision KISS FFT
  3d grid and FFT values/proc = 42875 28800
  generated 0 of 1 mixed pair_coeff terms from geometric mixing rule
Neighbor list info ...
  update every 1 steps, delay 0 steps, check yes
  max neighbors/atom: 2000, page size: 100000
  master list distance cutoff = 29
  ghost atom cutoff = 29
  binsize = 14.5, bins = 12 12 12
  1 neighbor lists, perpetual/occasional/extra = 1 0 0
  (1) pair lj/cut/coul/long/gpu, perpetual
      attributes: full, newton off
      pair build: full/bin
      stencil: full/bin/3d
      bin: standard
Per MPI rank memory allocation (min/avg/max) = 11.45 | 11.54 | 11.62 Mbytes
Step PotEng Temp c_press Lx CPU 
       0 1.7992005e+08            0    175.78446          160            0 
    5000   -68338.438    1.4293119 -0.0043602568          160    39.447343 
   10000    -73918.38    1.4935295 -0.004393711          160    78.782477 
   15000   -78622.025    1.3965352 -0.0045575846          160     118.0874 
   20000   -82768.807     1.468776 -0.004392314          160    157.32295 
   25000   -86480.516    1.4464657 -0.0044457393          160    196.55677 
   30000    -89798.63    1.4259384 -0.0044937753          160    235.79709 
   35000   -93005.979    1.4398077 -0.0043885507          160    275.00721 
   40000   -95929.524    1.4451538 -0.0044664078          160     314.1987 
   45000   -98503.606    1.4625935 -0.004208907          160    353.36514 
   50000   -101154.64    1.4038551 -0.0042796169          160     392.5624 
Loop time of 392.563 on 8 procs for 50000 steps with 2304 atoms

Performance: 2200.923 tau/day, 127.368 timesteps/s
99.6% CPU use with 8 MPI tasks x 1 OpenMP threads

MPI task timing breakdown:
Section |  min time  |  avg time  |  max time  |%varavg| %total
---------------------------------------------------------------
Pair    | 9.3861     | 9.7215     | 10.111     |   9.3 |  2.48
Bond    | 0.0065743  | 0.0086842  | 0.010366   |   1.4 |  0.00
Kspace  | 376.13     | 376.75     | 377.24     |   1.9 | 95.97
Neigh   | 0.057241   | 0.064373   | 0.070602   |   1.7 |  0.02
Comm    | 2.4196     | 2.7154     | 3.0749     |  13.7 |  0.69
Output  | 0.00034    | 0.0009517  | 0.0052066  |   0.0 |  0.00
Modify  | 2.7455     | 2.8055     | 2.8749     |   2.8 |  0.71
Other   |            | 0.493      |            |       |  0.13

Nlocal:        288.000 ave         313 max         260 min
Histogram: 2 0 0 1 0 2 1 0 0 2
Nghost:        1332.12 ave        1354 max        1302 min
Histogram: 1 1 0 0 1 2 0 0 0 3
Neighs:         0.00000 ave           0 max           0 min
Histogram: 8 0 0 0 0 0 0 0 0 0
FullNghs:      16565.2 ave       18917 max       14144 min
Histogram: 2 0 0 1 0 3 0 0 0 2

Total # of neighbors = 132522
Ave neighs/atom = 57.518229
Ave special neighs/atom = 0.0000000
Neighbor list builds = 69
Dangerous builds = 0

#    compute     peatom      all     pe/atom
#    variable    exppe       atom    exp(2*c_peatom/${ttemp})
#    compute     aveS        small   reduce ave v_exppe
#    compute     aveCl       anion   reduce ave v_exppe
#    compute     aveNa       cation  reduce ave v_exppe
#    thermo ${every}
#    thermo_style custom step pe temp lx vol c_aveS c_aveCl c_aveNa cpu
#    thermo_modify norm no flush yes
#    variable    chempNP     equal   temp*(ln(2304/vol)+ln(18300/vol)*10+ln(c_aveS)+ln(c_aveCl)*10)
#    variable    chempS      equal   temp*(ln(5500/vol)+ln(18300/vol)+ln(c_aveNa)+ln(c_aveCl))
#    label checking
#    run ${every}
#    if "${chempNP}>${mu_np}" then 'print "ChempNP=${chempNP}; expel"' "jump gcmc.in checking" else 'print "done!"'

    fix deforming all deform 10 x final -33 33 y final -33 33 z final -33 33 remap x
    run ${t_deform}
    run 50000
PPPM initialization ...
  using 12-bit tables for long-range coulomb (src/kspace.cpp:340)
  G vector (1/distance) = 0.11438956
  grid = 60 60 60
  stencil order = 5
  estimated absolute RMS force accuracy = 0.00041211524
  estimated relative force accuracy = 0.00041211524
  using double precision KISS FFT
  3d grid and FFT values/proc = 42875 28800
  generated 0 of 1 mixed pair_coeff terms from geometric mixing rule
Per MPI rank memory allocation (min/avg/max) = 11.45 | 11.54 | 11.62 Mbytes
Step PotEng Temp c_press Lx CPU 
   50000   -101154.64    1.4038551 -0.0042796169          160            0 
   55000   -107546.87    1.4485563 -0.0037989213        150.6    42.165236 
   60000    -114241.8    1.4467738 -0.0040946717        141.2    84.462747 
   65000   -121493.97     1.419235 -0.004187634        131.8    126.72299 
   70000    -129495.3    1.4479762 -0.0041839436        122.4    169.08059 
   75000   -137928.01    1.4534912 -0.0028597865          113    211.49515 
   80000   -146480.69    1.3709724 0.0016808095        103.6    253.95931 
   85000   -155528.24    1.4238869 0.0095448316         94.2    296.50179 
   90000    -164152.1    1.3993846   0.02993478         84.8    339.17318 
   95000   -172663.09    1.4707817  0.072639456         75.4    382.09871 
  100000   -181983.07    1.4906941   0.17849082           66    425.40436 
Loop time of 425.405 on 8 procs for 50000 steps with 2304 atoms

Performance: 2031.008 tau/day, 117.535 timesteps/s
99.6% CPU use with 8 MPI tasks x 1 OpenMP threads

MPI task timing breakdown:
Section |  min time  |  avg time  |  max time  |%varavg| %total
---------------------------------------------------------------
Pair    | 10.151     | 10.493     | 10.826     |   7.8 |  2.47
Bond    | 0.0067092  | 0.0086775  | 0.010108   |   1.3 |  0.00
Kspace  | 378.36     | 378.87     | 379.42     |   1.9 | 89.06
Neigh   | 0.78639    | 0.85969    | 0.92051    |   4.9 |  0.20
Comm    | 3.7        | 4.1664     | 4.5491     |  12.4 |  0.98
Output  | 0.00080534 | 0.0062778  | 0.013376   |   5.3 |  0.00
Modify  | 25.384     | 27.909     | 30.083     |  34.4 |  6.56
Other   |            | 3.09       |            |       |  0.73

Nlocal:        288.000 ave         303 max         271 min
Histogram: 2 0 0 0 1 2 1 0 0 2
Nghost:        5880.88 ave        5908 max        5850 min
Histogram: 2 0 0 1 1 0 1 1 0 2
Neighs:         0.00000 ave           0 max           0 min
Histogram: 8 0 0 0 0 0 0 0 0 0
FullNghs:      234911.0 ave      249007 max      220291 min
Histogram: 2 0 0 0 1 3 0 0 0 2

Total # of neighbors = 1879290
Ave neighs/atom = 815.66406
Ave special neighs/atom = 0.0000000
Neighbor list builds = 331
Dangerous builds = 0

    unfix 1
#    unfix 2
    unfix freeze
    unfix deforming

    timestep 0.002

    fix 1 all   nph	            iso ${ipress} ${ipress} 1.0
    fix 1 all   nph	            iso 0.1 ${ipress} 1.0
    fix 1 all   nph	            iso 0.1 0.1 1.0
    run ${t_pressed}
    run 50000
PPPM initialization ...
  using 12-bit tables for long-range coulomb (src/kspace.cpp:340)
  G vector (1/distance) = 0.1206864
  grid = 32 32 32
  stencil order = 5
  estimated absolute RMS force accuracy = 0.00049681107
  estimated relative force accuracy = 0.00049681107
  using double precision KISS FFT
  3d grid and FFT values/proc = 9261 4096
  generated 0 of 1 mixed pair_coeff terms from geometric mixing rule
Per MPI rank memory allocation (min/avg/max) = 9.330 | 9.332 | 9.336 Mbytes
Step PotEng Temp c_press Lx CPU 
  100000    -181942.3    1.4906941   0.18013792           66            0 
  105000      -200580     1.621536  0.097412596    61.875011    14.095731 
  110000   -202693.27    1.5882039  0.095867875    60.723476    28.405284 
  115000   -203969.35    1.5455342  0.098724254    60.164065    42.861962 
  120000   -204689.92    1.5802757   0.10995975     59.94474     57.42271 
  125000   -205127.39     1.601735  0.097883844    59.983433    71.946926 
  130000   -205116.08    1.5912195  0.099808714    59.943678    86.536785 
  135000   -205462.87     1.590904  0.095100689     59.94779    101.10032 
  140000   -205732.22    1.6123582   0.10052301    59.880714    115.68313 
  145000   -205553.91    1.6021313  0.098583181    59.946711     130.2527 
  150000   -205655.99    1.6050328  0.098876876     59.92768    144.82869 
Loop time of 144.829 on 8 procs for 50000 steps with 2304 atoms

Performance: 59656.628 tau/day, 345.235 timesteps/s
97.3% CPU use with 8 MPI tasks x 1 OpenMP threads

MPI task timing breakdown:
Section |  min time  |  avg time  |  max time  |%varavg| %total
---------------------------------------------------------------
Pair    | 15.986     | 18.268     | 22.722     |  47.0 | 12.61
Bond    | 0.0039665  | 0.0052863  | 0.0063889  |   1.0 |  0.00
Kspace  | 66.302     | 66.929     | 67.52      |   5.7 | 46.21
Neigh   | 6.3819     | 6.4878     | 6.5725     |   2.2 |  4.48
Comm    | 6.0767     | 6.1383     | 6.2299     |   2.0 |  4.24
Output  | 0.00033386 | 0.00050083 | 0.0016497  |   0.0 |  0.00
Modify  | 41.316     | 45.195     | 47.626     |  27.5 | 31.21
Other   |            | 1.805      |            |       |  1.25

Nlocal:        288.000 ave         292 max         284 min
Histogram: 1 2 0 1 0 0 1 0 2 1
Nghost:        7259.00 ave        7272 max        7247 min
Histogram: 2 0 0 1 0 1 2 1 0 1
Neighs:         0.00000 ave           0 max           0 min
Histogram: 8 0 0 0 0 0 0 0 0 0
FullNghs:      315614.0 ave      320203 max      310876 min
Histogram: 1 2 0 1 0 0 1 0 1 2

Total # of neighbors = 2524914
Ave neighs/atom = 1095.8828
Ave special neighs/atom = 0.0000000
Neighbor list builds = 712
Dangerous builds = 0
    unfix 1
    fix 1 all   nph	            iso ${ipress} ${ppress} 1.0
    fix 1 all   nph	            iso 0.1 ${ppress} 1.0
    fix 1 all   nph	            iso 0.1 0 1.0
    run ${t_relaxed}
    run 100000
PPPM initialization ...
  using 12-bit tables for long-range coulomb (src/kspace.cpp:340)
  G vector (1/distance) = 0.12144196
  grid = 30 30 30
  stencil order = 5
  estimated absolute RMS force accuracy = 0.00049869215
  estimated relative force accuracy = 0.00049869215
  using double precision KISS FFT
  3d grid and FFT values/proc = 8000 3600
  generated 0 of 1 mixed pair_coeff terms from geometric mixing rule
Per MPI rank memory allocation (min/avg/max) = 9.790 | 9.805 | 9.816 Mbytes
Step PotEng Temp c_press Lx CPU 
  150000   -205655.85    1.6050328   0.09888224     59.92768            0 
  155000   -205754.37    1.5782788  0.095416641    59.941012     14.08003 
  160000   -205683.48    1.6034608  0.095699688    59.958664    28.196751 
  165000   -205782.65     1.578659  0.083454793    60.075162     42.29899 
  170000    -205670.6    1.5661599  0.075486726    60.160485    56.362441 
  175000   -205861.33     1.630955  0.078710973    60.153421    70.397545 
  180000   -205997.81    1.5842114  0.065664624    60.292464     84.44232 
  185000   -205862.47    1.5655896  0.066619896     60.30788    98.515489 
  190000   -205928.04    1.6073214  0.059280299    60.390027    112.50996 
  195000   -205845.29    1.6093423    0.0567751    60.458878    126.56765 
  200000   -205801.76    1.5756896  0.059744649    60.425251    140.61062 
  205000   -205943.78    1.6289157  0.049937705    60.507791    154.64949 
  210000   -205880.68    1.6328522  0.033275143    60.706899    168.67758 
  215000   -205887.48    1.5693678  0.033928641    60.700952    182.70236 
  220000    -205776.7    1.5399015  0.031675958    60.789988      196.693 
  225000    -205692.8    1.5906287  0.027361335    60.862233    210.66347 
  230000   -205489.22    1.5913402  0.023174054    60.952116    224.62744 
  235000   -205540.04    1.5988994  0.017055371    61.041462    238.60431 
  240000   -205186.13     1.574552  0.012650701    61.264284    252.56895 
  245000   -205208.52    1.6243802  0.005701943    61.359423     266.5048 
  250000   -205047.51    1.5740131 0.0043759502    61.395333    280.44568 
Loop time of 280.446 on 8 procs for 100000 steps with 2304 atoms

Performance: 61616.182 tau/day, 356.575 timesteps/s
94.4% CPU use with 8 MPI tasks x 1 OpenMP threads

MPI task timing breakdown:
Section |  min time  |  avg time  |  max time  |%varavg| %total
---------------------------------------------------------------
Pair    | 55.285     | 58.251     | 65.157     |  37.7 | 20.77
Bond    | 0.0080024  | 0.010705   | 0.012526   |   1.3 |  0.00
Kspace  | 109.61     | 110.78     | 111.87     |   9.2 | 39.50
Neigh   | 12.523     | 12.65      | 12.903     |   3.4 |  4.51
Comm    | 12.23      | 12.363     | 12.543     |   2.9 |  4.41
Output  | 0.00063958 | 0.0011417  | 0.004616   |   3.9 |  0.00
Modify  | 61.045     | 78.528     | 85.27      | 101.9 | 28.00
Other   |            | 7.858      |            |       |  2.80

Nlocal:        288.000 ave         296 max         284 min
Histogram: 2 1 1 1 2 0 0 0 0 1
Nghost:        7051.62 ave        7074 max        7028 min
Histogram: 1 0 1 2 0 2 0 0 0 2
Neighs:         0.00000 ave           0 max           0 min
Histogram: 8 0 0 0 0 0 0 0 0 0
FullNghs:      293984.0 ave      302398 max      289449 min
Histogram: 1 2 1 1 2 0 0 0 0 1

Total # of neighbors = 2351868
Ave neighs/atom = 1020.7760
Ave special neighs/atom = 0.0000000
Neighbor list builds = 1386
Dangerous builds = 0
    unfix 1

    timestep 0.001
    dump moldump all custom 10000 ${xyzname} id type q x y z
    dump moldump all custom 10000 r8f0_coulombic_1.6.lammpstrj id type q x y z
    fix 1 all   nph                 iso ${ppress} ${ppress} 1.0
    fix 1 all   nph                 iso 0 ${ppress} 1.0
    fix 1 all   nph                 iso 0 0 1.0
    run ${t_eq}
    run 10000000
PPPM initialization ...
  using 12-bit tables for long-range coulomb (src/kspace.cpp:340)
  G vector (1/distance) = 0.1208729
  grid = 30 30 30
  stencil order = 5
  estimated absolute RMS force accuracy = 0.00053496982
  estimated relative force accuracy = 0.00053496982
  using double precision KISS FFT
  3d grid and FFT values/proc = 8000 3600
  generated 0 of 1 mixed pair_coeff terms from geometric mixing rule
Per MPI rank memory allocation (min/avg/max) = 11.05 | 11.07 | 11.08 Mbytes
Step PotEng Temp c_press Lx CPU 
  250000   -205047.56    1.5740131 0.0043737762    61.395333            0 
  255000   -204966.99    1.5954213 -0.0030097488      61.4783    13.468101 
  260000   -205090.48    1.5881332 -0.0047769517    61.508321    26.946272 
  265000   -205124.09    1.5977806 -0.0063518405    61.498348    40.427474 
  270000   -205056.38    1.6110385 -0.0035503411    61.496691    53.889834 
  275000   -205019.82    1.6017235  0.004851355    61.383129     67.33852 
  280000   -205020.31    1.6279206 0.0012482465    61.425929    80.836524 
  285000   -205279.63     1.598938 0.0045191481    61.285187    94.280212 
  290000   -204814.52     1.570162 -0.0013856454    61.491486    107.74964 
  295000   -204974.44    1.6026877 0.0057890026    61.433641    121.18075 
  300000   -204794.38    1.5760686  0.003530073    61.501154     134.6339 
  305000    -204827.3    1.6157599 -0.0059344367    61.588382    148.06304 
  310000   -204965.54    1.5923347 0.0028387368    61.515923    161.50188 
  315000   -204963.09    1.6113353 0.00061179808    61.505904    174.90499 
  320000   -204864.39    1.5900012 -0.0021953899    61.467982    188.38477 
  325000   -204920.61    1.6035044 0.0018532569    61.483062     201.8423 
  330000   -204737.56    1.6314915 0.00063810411    61.562796    215.29006 
  335000   -205009.12    1.5662086 -0.0042614684    61.549626    228.71793 
  340000   -204978.53     1.597859 -0.0039262489    61.596239    242.14824 
  345000   -205057.86    1.5826037 0.00041736727    61.399948    255.58285 
  350000   -205235.31     1.593871 -0.0021201725    61.450732    269.02335 
  355000   -205029.19    1.6059343 0.00034837349    61.476046    282.44526 
  360000   -204987.03    1.6126763 -0.003013438    61.502949     295.8836 
  365000   -205143.13    1.5869883 -8.1338389e-05    61.450316    309.28678 
  370000   -205010.56    1.6072662 0.0089085251    61.411879    322.75736 
  375000   -205210.69    1.5990092 0.0027860608    61.377379    336.18439 
  380000   -205127.21    1.6127048 0.0028254732    61.407108     349.6228 
  385000   -204991.75    1.6014098 0.0024571134    61.487752    363.07085 
  390000   -205002.86    1.6136528 -0.0046511137    61.560611    376.49065 
  395000   -205032.94    1.5567986 -0.00010112293     61.48692    389.93084 
  400000   -204880.76    1.6047429 -0.002173241    61.545364    403.39149 
  405000    -205110.7    1.5622523 -0.0021431615    61.455787    416.82353 
  410000   -205006.64    1.5548637 -0.0022410188    61.490622    430.29022 
  415000   -205179.04    1.5791909 -0.0015491099    61.441972     443.7435 
  420000   -205172.94    1.6394369 0.00057409922    61.448332    457.19646 
  425000      -205015    1.5851149 -0.0046213706    61.489668    470.61582 
  430000   -205060.91    1.5708616 0.0043271875    61.440349    484.05276 
  435000   -204952.47    1.5874745 0.00076918851    61.548665    497.45633 
  440000    -204754.3    1.6056869 0.0016306582    61.562928    510.85771 
  445000   -204902.66      1.57385 -0.0055093572    61.579374    524.32022 
  450000   -204919.78    1.6159796 -0.0012310127    61.523468     537.7366 
  455000   -204865.97    1.6080556 0.0019156642     61.49944    551.17917 
  460000   -205072.88    1.6027385 -0.0022658323    61.481354    564.58221 
  465000   -204943.14    1.5835429 -0.0015690841    61.502867    578.01947 
  470000   -204883.26    1.5725188 -0.00012206004    61.486692    591.42723 
  475000   -204918.64    1.5995126 0.0021567622    61.483368    604.84518 
  480000    -205098.9    1.6014996 8.7125409e-05     61.44775    618.26711 
  485000    -205030.4    1.5890071 -0.0014555711    61.481586    631.71204 
  490000   -204924.83    1.6127569 -0.0016134252    61.569678    645.09606 
  495000   -205057.71    1.6324626 0.0033701006    61.420515    658.50424 
  500000   -204874.93     1.601767 -0.0010481295    61.516488    671.93527 
  505000   -204975.69    1.5914172 0.0064105727    61.414052    685.37215 
  510000   -204856.68    1.5725819 -0.0015785179    61.548648    698.78234 
  515000   -205053.45      1.62229 -0.00019321111    61.471495    712.21116 
  520000   -204844.31    1.5970232 0.0028210695    61.526149    725.67274 
  525000   -204785.31    1.6267529 -0.0019430845    61.580445    739.12637 
  530000   -204929.16    1.6228871 -0.0017492275    61.550952    752.59149 
  535000   -204845.82    1.5928091 0.0030958896    61.532636    766.03963 
  540000   -204827.88    1.6098669 -0.0040038478    61.638514    779.40376 
  545000   -204950.65    1.6131312 0.0048634007    61.501418    792.81502 
  550000   -205024.35    1.6121345 -0.0056260581    61.525112    806.24674 
  555000   -205017.29    1.6035597 0.0077533835    61.431739    819.69923 
  560000   -204981.45    1.6271214 -0.0054920497    61.560973    833.12722 
  565000   -204855.87    1.6164468 0.00084180175      61.4991    846.55481 
  570000   -205052.02    1.6345501 -0.0016280893    61.496274    859.99116 
  575000   -205121.77    1.6024875 0.0054000175    61.373297    873.43293 
  580000   -204856.81    1.5833511 -0.0049457982    61.620904    886.83027 
  585000   -204832.72    1.6354211 0.0010951224     61.49625    900.24233 
  590000   -205046.79    1.6000839 -0.0013742137    61.419352    913.68518 
  595000   -205023.79    1.5808199 -0.0023754806    61.480125     927.1188 
  600000   -204890.84    1.6287027 0.0017232571    61.471839    940.55672 
  605000   -205057.93    1.6171912 -0.0034900768    61.517743    953.98016 
  610000   -204972.25    1.5717505 0.0033034941    61.451266    967.41004 
  615000   -204779.15    1.5937224 -0.0013924968    61.590228    980.82012 
  620000   -205005.88    1.5681539 -0.0004573121    61.464705    994.27522 
  625000   -205014.47    1.5802746 0.0021943952    61.441167    1007.7168 
  630000   -204764.51    1.5509933 -0.003634449    61.559323    1021.1369 
  635000    -204709.1    1.6336673 0.00085534512    61.557905    1034.5554 
  640000   -204879.52    1.5800939  0.001245247     61.49665    1047.9554 
  645000   -204829.53    1.5773231 0.0032199884    61.499821     1061.383 
  650000   -204827.82    1.5758063 -0.0041245407    61.589424    1074.8272 
  655000   -204961.07    1.5884245 0.0045035383    61.419293    1088.2397 
  660000   -204856.48    1.5664695 -0.0016538019    61.559868    1101.6471 
  665000   -204889.92    1.6223011 0.0015764153    61.441801    1115.0957 
  670000   -205002.32    1.5813849 0.00055450396    61.496588    1128.5166 
  675000   -204927.67    1.6306244 0.0024982102    61.457377    1141.9466 
  680000   -204960.98     1.617775 0.0018566076    61.491089    1155.4154 
  685000   -204684.57    1.5705653 0.0034958414    61.547847    1168.8491 
  690000   -204821.94    1.5631278 0.0010076214    61.531224    1182.2339 
  695000   -204709.39    1.6299139 -0.0022300043    61.567317    1195.6749 
  700000   -204663.78    1.5924926 0.0017585303     61.52375      1209.12 
  705000   -204861.07    1.5793117 -0.0025798287    61.511041    1222.5135 
  710000   -204976.52    1.5985387 -0.003155593    61.495761    1235.9012 
  715000   -204896.41    1.5682713 0.0055993577    61.456513    1249.3412 
  720000   -204940.96    1.5734762 -0.00015054446    61.497123    1262.7408 
  725000   -204979.45    1.5824494 -0.0072569656    61.540485    1276.1919 
  730000   -204805.92    1.5992953 -0.0017870899    61.524522    1289.6168 
  735000   -204841.03    1.6182938 0.00035066623     61.52083     1303.057 
  740000    -204822.1     1.597838 -0.0039666536    61.613617    1316.5048 
  745000   -204866.58    1.6588354 -0.004143409    61.652198    1329.8806 
  750000   -204933.57    1.5893952 0.0015822289    61.538057    1343.2719 
  755000   -204784.42    1.5649926 -0.0014530743    61.572299    1356.6519 
  760000    -204839.7    1.5781323 -0.0035940167    61.615972    1370.0978 
  765000   -204798.48    1.5994434 0.0030797564    61.525195    1383.5598 
  770000   -204675.75    1.5817218 0.0055794491    61.515994    1396.9843 
  775000   -204945.12    1.5724952 0.0025158277    61.512156    1410.4226 
  780000   -204774.01    1.6316537 -0.0039499253    61.600088    1423.8157 
  785000   -204919.36    1.5727268 0.0029835063    61.463362    1437.2307 
  790000   -204733.46     1.618874 -0.002536856     61.54548    1450.6471 
  795000   -205005.02    1.5662942 0.00036660006    61.473953    1464.0917 
  800000   -204803.93    1.5858867 -0.00066563024    61.545569    1477.5205 
  805000   -204872.19    1.5967175 -0.0018892682     61.53496    1490.9474 
  810000   -204945.46    1.6466767 4.1310754e-05    61.427917    1504.3902 
  815000   -204772.41    1.6033433 -0.00087430941    61.546583    1517.8345 
  820000   -204810.85    1.6095366 0.0018808451    61.501281    1531.2411 
  825000   -204918.25    1.5476659 -0.00041872543    61.435187    1544.6691 
  830000   -205115.72    1.6220641 -0.0014957442    61.478399    1558.1494 
  835000   -205052.56    1.6196922 -0.0008218008    61.482759    1571.5714 
  840000   -205084.13     1.593693 -0.00042445985    61.489065    1584.9957 
  845000   -204820.12    1.6025245 -0.0023112223    61.589553     1598.464 
  850000   -204910.08    1.6120255 -0.0026611858    61.568567    1611.9048 
  855000   -204811.73    1.5510509 -9.7109414e-05    61.562727    1625.3048 
  860000   -204927.75     1.574764 0.0050110055    61.469437    1638.7309 
  865000   -205040.55    1.5863245 -0.0075143074    61.550583    1652.1519 
  870000   -204819.91    1.5495978 -0.0063115618    61.569113    1665.5542 
  875000   -204856.53    1.5444095 0.0010763964    61.508935    1679.0057 
  880000   -204943.24    1.5720556 -0.0010760574    61.524541    1692.3988 
  885000   -204881.54    1.6170603 0.0013913061    61.492984    1705.8468 
  890000   -204883.66    1.5797668 0.00094659095    61.535885    1719.2539 
  895000   -204923.14    1.5639694 0.0053732184    61.468925    1732.6665 
  900000   -204877.02    1.6244924 0.0025484747    61.473218    1746.1026 
  905000    -204882.2    1.6231921 -0.0017355678     61.52638    1759.5519 
  910000   -204667.73    1.5719126 -0.0022720746    61.562489    1772.9815 
  915000   -204508.15    1.6013282 0.0018595567    61.555573    1786.3782 
  920000   -204495.93    1.6205307 -0.0059136598    61.627055    1799.7883 
  925000   -204650.97    1.6281718 -0.00050760481    61.522961    1813.2179 
  930000   -204928.54    1.6251266 0.0021497935    61.455502    1826.6387 
  935000   -204687.24    1.6408907 -0.0050778042    61.618489    1840.0344 
  940000   -204796.48    1.6127119 0.0025199691    61.531422    1853.4663 
  945000   -204885.69    1.6556459 0.0046149581    61.468905    1866.8886 
  950000   -204803.61    1.6269756 0.0092022754    61.456222    1880.3041 
  955000   -204786.15    1.6010689 0.0018672568    61.547189     1893.736 
  960000   -204732.19    1.5600519 -0.0013700476    61.589362    1907.1713 
  965000   -204763.41    1.5668879 0.00016259055    61.605409    1920.5893 
  970000   -204674.47    1.5623544 -0.0011436511    61.576865    1933.9974 
  975000   -204498.12    1.6631969 -0.0079016289    61.704539    1947.4469 
  980000    -204647.5    1.6008428 -0.0017822752    61.629555     1960.847 
  985000   -204739.91    1.6231573 -0.0031205423    61.572023    1974.2556 
  990000    -204731.9    1.6295521 0.0018832584    61.593516    1987.7334 
  995000   -204750.12    1.5875265 -0.00072625261    61.529939    2001.1342 
 1000000   -204678.32    1.5862453 0.0019756025    61.618589    2014.5745 
 1005000   -204774.91    1.5861928 6.068561e-05    61.585563    2027.9511 
 1010000   -204868.08    1.5761671 -0.006953571    61.669218    2041.3866 
 1015000   -204614.89    1.5934735 0.00064275628    61.613825    2054.7719 
 1020000   -204742.87    1.5686935 -0.0013726279    61.636281    2068.1407 
 1025000   -204715.28    1.5935299 -0.00025169696    61.583247    2081.5577 
 1030000   -204748.57    1.5446772 -0.0063703577    61.610586    2094.9725 
 1035000   -204733.08    1.6155875 0.0066428369    61.485882    2108.4131 
 1040000   -204819.99    1.6071187 0.0031714244     61.48244    2121.8315 
 1045000   -204819.41    1.6247601 0.0025892538     61.54415    2135.2762 
 1050000   -204719.46     1.567752 -0.00034063793    61.562024    2148.7122 
 1055000   -204927.39    1.5929899 0.0055384133    61.438088    2162.1636 
 1060000    -205100.9    1.6395866 -0.0058687727    61.548591    2175.6386 
 1065000    -204916.7    1.5937435 -0.00083518824    61.439812     2189.089 
 1070000   -204884.45    1.6215334 -0.0029071468     61.54363    2202.5726 
 1075000   -204893.74     1.644341 -0.00084679961    61.481335    2215.9849 
 1080000   -204915.35    1.6066248  0.002408355    61.424581    2229.4389 
 1085000   -204905.96    1.5777366 -0.0017006092    61.494113    2242.8924 
 1090000   -204850.14    1.5924755 -0.0060899751      61.5995    2256.3289 
 1095000    -204885.1    1.5856925 0.0013095743    61.522894    2269.7313 
 1100000   -204714.27      1.58765 -0.00093687921    61.542703    2283.1921 
 1105000   -204768.33    1.5831994 -0.002648249    61.566664    2296.6019 
 1110000   -204851.56    1.6187223 -0.0024737352    61.504254    2310.0414 
 1115000   -205001.32    1.5803867 0.00045161547    61.438468    2323.4886 
 1120000   -204829.46      1.58653 -0.0002596854    61.482908    2336.9486 
 1125000   -205018.67    1.6262024 -0.003068422     61.49463    2350.4021 
 1130000   -204985.98    1.5664561 -0.00038767126    61.484821    2363.8319 
 1135000    -205043.2    1.6266814 -0.0017018957    61.501568    2377.2335 
 1140000   -204939.17    1.6354721 0.00060365918    61.504265    2390.6584 
 1145000   -205062.52    1.6233583 0.00024635564    61.450553    2404.0614 
 1150000   -204932.67    1.5930031 -0.0023658901    61.521707    2417.5413 
 1155000   -205054.55    1.6196664 -0.0013876213    61.457092     2430.966 
 1160000   -205029.04    1.5935288 0.0055160887    61.413361     2444.398 
 1165000   -204948.49    1.6108943 0.0030676763    61.489651     2457.824 
 1170000   -204637.46    1.6028624 0.0050072353    61.508431    2471.2881 
 1175000   -204848.68    1.6065569 -0.0056380199    61.609363    2484.7119 
 1180000    -204784.1    1.6293956 -0.00059382716     61.55304    2498.1532 
 1185000   -205007.99    1.5838636 0.0042501548     61.45903    2511.6015 
 1190000   -205278.39    1.6219823 -0.0071474099    61.467003    2525.0185 
 1195000   -204924.88    1.5773722 -0.00089509438    61.471304    2538.4273 
 1200000   -205056.72     1.535276 8.0149896e-05     61.46018    2551.8707 
 1205000   -205008.12    1.5792229 -0.0061150543    61.539226    2565.3007 
 1210000   -205088.26    1.5778498 0.0025726255    61.422406     2578.724 
 1215000   -205155.41     1.598397 -0.00010015465    61.426085    2592.2022 
 1220000   -205060.76    1.5968357 -0.0033902954    61.469137    2605.6877 
 1225000   -205146.81    1.6379493 -0.0026077052    61.459889    2619.1986 
 1230000    -204999.3     1.571934 -0.0052110931    61.537659    2632.6719 
 1235000   -205033.69    1.6402858 -2.7847143e-07     61.46609    2646.1017 
 1240000   -205216.11    1.6602758 -0.00019699422     61.43402    2659.5648 
 1245000   -205173.18    1.5745249 0.0014521886    61.411657      2673.01 
 1250000   -205276.18    1.5970004 0.00091562247    61.392838    2686.4511 
 1255000   -204888.91    1.5763872 -8.84434e-05    61.477716    2699.9071 
 1260000   -205026.08     1.612444 0.0040640845     61.40621    2713.3467 
 1265000   -205160.11     1.593821 -0.0035490005    61.485099    2726.7652 
 1270000   -205208.01    1.6005896 0.00091380664    61.401324    2740.2123 
 1275000   -205011.39    1.5945509 0.0032711732    61.489761    2753.6717 
 1280000   -205049.12    1.6093721 0.0048632638    61.435504    2767.1445 
 1285000   -205109.15    1.6151901 -0.00048586166    61.484479    2780.5707 
 1290000   -205146.71    1.5528072 -0.0038539799    61.508503    2794.0673 
 1295000   -205253.59    1.6344735 0.00066266068    61.360585    2807.5228 
 1300000   -205120.28    1.6183774 -0.002734969    61.463493    2820.9918 
 1305000   -204989.68    1.6170611 -0.0031992122    61.556453    2834.4542 
 1310000      -205057    1.5814023 -0.0065615425    61.498249    2847.8959 
 1315000   -205164.41    1.5928873 0.0003367537    61.439672    2861.3177 
 1320000   -205038.03    1.5817203 -0.0047737699    61.521039    2874.7501 
 1325000   -205195.15    1.5990242 -0.0055756659    61.531741    2888.1735 
 1330000   -205011.58    1.6007926 0.0011580406    61.484876    2901.6167 
 1335000   -205004.52    1.6169129 5.0038341e-05    61.424062     2915.056 
 1340000   -205023.17    1.6248588 -0.00052324665     61.47681    2928.5156 
 1345000   -205020.98    1.5916415 -0.0056442387    61.570564    2941.9628 
 1350000   -205007.05    1.6080453 0.0050642277    61.461176    2955.3851 
 1355000   -205013.45     1.604973  0.002081086    61.516921    2968.8248 
 1360000   -204878.72     1.618788 -0.0089863552    61.670206     2982.252 
 1365000   -204968.78    1.6155187  0.001474813    61.512932    2995.6819 
 1370000   -204953.64    1.5804002 -0.0019366779    61.586623    3009.1142 
 1375000   -204864.09    1.6105789 -0.0076240349    61.670766    3022.5271 
 1380000   -205100.38    1.6347865 -0.0014423269    61.527873    3035.9555 
 1385000   -204986.54    1.6103611 0.0042376976    61.437519    3049.4137 
 1390000   -205090.67    1.6299641 0.0017572266    61.474038    3062.8167 
 1395000   -205138.35    1.5815304 0.00036357086    61.420172    3076.2383 
 1400000   -205026.71    1.6086656 0.00078097128    61.473543    3089.6659 
 1405000   -205053.91    1.5845576 0.0061016842    61.406635    3103.1007 
 1410000   -205025.84    1.5994471 -0.00016200918    61.486662    3116.5426 
 1415000    -205205.8    1.5836524 0.0054805795    61.366321    3129.9893 
 1420000   -205032.68    1.5691548 0.0020819415    61.450634    3143.4563 
 1425000   -205082.56    1.6069531 -0.00084438663    61.471815    3156.9014 
 1430000   -205104.42    1.6428616 0.0016672862    61.461114    3170.3552 
 1435000   -205011.72    1.6222182 0.0024738435    61.496329    3183.8363 
 1440000    -204863.4     1.580367 -0.00055411581    61.564176    3197.2688 
 1445000   -205037.03    1.5909688 -0.00029682245    61.528603    3210.7399 
 1450000   -204937.11    1.6165132 -0.00042706365    61.552177    3224.1563 
 1455000   -204883.58    1.6013917 -0.00042425391    61.567336     3237.579 
 1460000   -205020.24    1.5947177 -0.00073372111      61.5346    3250.9971 
 1465000   -204909.87    1.6155453 -0.0015220588    61.500843    3264.4434 
 1470000   -204909.88    1.6187171 0.0016963707    61.442808    3277.8627 
 1475000   -204971.95    1.6393001 0.0012478319     61.49402    3291.2798 
 1480000   -204903.81    1.6034157 -0.0034633644    61.553904    3304.7129 
 1485000   -204968.32    1.6029434 -0.0054202847     61.54224    3318.1408 
 1490000   -204839.19    1.5706368 0.0015853378    61.467382    3331.5677 
 1495000   -205258.92    1.5904916  0.003127091     61.35871    3345.0484 
 1500000   -205104.46    1.5961628 -0.0062016585     61.50615    3358.4869 
 1505000   -204916.39    1.5881164 -0.0053109314    61.607302    3371.9253 
 1510000   -204925.61    1.5610553 0.00075835115    61.470295    3385.3493 
 1515000   -205110.42    1.5925159 0.0015485848    61.438008    3398.8258 
 1520000   -205053.76    1.5727013 0.0031598857    61.427857    3412.2648 
 1525000   -204939.02    1.6011993 -0.0038627038    61.543109    3425.6956 
 1530000   -204943.77    1.6138769 0.0010676751    61.498748    3439.0894 
 1535000    -205098.6    1.6236493 0.00022348465    61.448347    3452.5078 
 1540000   -205085.46    1.6177284 -0.0025896499    61.464864    3465.9637 
 1545000   -205099.34    1.5887812 0.0036203317    61.394573    3479.4485 
 1550000   -205189.96    1.6133158 0.0056761893    61.357055    3492.9004 
 1555000   -205077.76    1.5746465 -0.0046342876    61.511119    3506.3823 
 1560000   -205296.21    1.6027743 0.0010898933    61.422617    3519.8155 
 1565000   -205210.84    1.5984485 -0.00076694517    61.455831    3533.2479 
 1570000   -204971.49    1.5622294 0.0064838027    61.436951    3546.6769 
 1575000   -205033.14    1.6283512 -0.004629408    61.510787     3560.084 
 1580000   -205069.05    1.6325494 0.0036532552    61.392844    3573.5435 
 1585000   -205064.87    1.5744516 -0.0063970112    61.536976    3586.9795 
 1590000   -205141.92    1.6431881 0.00027742783     61.43201     3600.444 
 1595000   -205211.29    1.5429694 0.0025034066    61.415082    3613.8992 
 1600000   -205165.91    1.5851945 -0.0045974404    61.479838    3627.3688 
 1605000   -205014.68    1.6011424 -0.0017931377    61.520992    3640.8083 
 1610000    -205011.8    1.5921637 -0.0022859545    61.507879    3654.2696 
 1615000   -204972.15    1.6078882 -0.0010813497     61.52385    3667.7326 
 1620000   -204984.17    1.5883831 -0.0012431939    61.498462    3681.1623 
 1625000   -205135.61    1.6252135 0.0029115984    61.454789    3694.6165 
 1630000   -205078.63    1.6105461 0.0037163768    61.430012    3708.0825 
 1635000   -205163.52    1.5793811 -0.0042799894    61.427458    3721.5264 
 1640000   -205018.41    1.6726995 -0.0031713648    61.516376    3734.9842 
 1645000   -205085.16    1.5869277 8.8399524e-05    61.463141    3748.4391 
 1650000   -204956.87    1.5776013 -0.0021402089    61.557196    3761.8815 
 1655000   -204911.06    1.5975269 -0.0061213436    61.597089    3775.3044 
 1660000   -205016.78    1.5730008 0.0057800228    61.407375    3788.7401 
 1665000   -204904.67    1.5985699 0.0023388265    61.446519    3802.1764 
 1670000   -204883.33    1.5739928 -0.004216909    61.558871    3815.6224 
 1675000   -204947.08    1.5539816 0.0013359018    61.524267    3829.0682 
 1680000   -205038.87    1.6146754 0.0011561908    61.469535    3842.5063 
 1685000   -205025.47    1.6069386 0.0043867019    61.420453    3855.9165 
 1690000   -205221.99    1.5720697 0.0040497863    61.445423     3869.325 
 1695000   -205138.35    1.5525086 -0.0015181243    61.492679    3882.6976 
 1700000    -205093.5     1.645656 0.0027169751     61.42854    3896.1073 
 1705000    -204939.9    1.6316093 -0.00064845175    61.567883     3909.483 
 1710000   -204892.51     1.576829 -0.00059954243    61.552851    3922.9011 
 1715000   -204952.66    1.6192671 0.0011280509     61.49203    3936.3487 
 1720000   -204921.97    1.5903715  0.003544989    61.464796    3949.7587 
 1725000   -205221.14    1.5960371 -0.0022008699    61.443409    3963.1971 
 1730000   -205101.87    1.5673276 0.0027700333    61.408568    3976.6321 
 1735000   -205180.83     1.587781 -0.00040309248    61.474939    3990.0569 
 1740000   -204963.18    1.5735168 0.00053425084    61.517933    4003.4611 
 1745000   -204870.77    1.5869095 0.0079005998    61.434213    4016.8583 
 1750000   -204908.31    1.5989946 -0.00083221002    61.510091    4030.3134 
 1755000   -205063.34    1.5960791 0.0035967028    61.397893    4043.7657 
 1760000   -205031.75    1.5432658 -0.0012177338    61.429861    4057.2308 
 1765000   -205034.66    1.5867111 3.8459984e-05    61.430294    4070.6708 
 1770000    -205103.8    1.5870978 -0.001878338    61.431369    4084.1402 
 1775000   -204977.69    1.6496017 0.0036621837    61.407465    4097.5772 
 1780000   -204920.44    1.6265488 -0.00042415245    61.494767    4111.0166 
 1785000   -204723.73    1.6279014 -0.0012100174    61.552147    4124.4244 
 1790000   -204822.76    1.5774654 -0.0047320902    61.562218    4137.8976 
 1795000   -204877.13    1.5453703 -0.0013562265    61.560939    4151.3203 
 1800000   -204992.69    1.6286326 -0.00073794434    61.515662      4164.77 
 1805000   -204870.09    1.6074652 0.0024680199    61.481586    4178.2055 
 1810000   -204944.48    1.6074298 -0.0003969436    61.502541    4191.6555 
 1815000   -205079.39    1.5766878 0.00026928768    61.414786    4205.0958 
 1820000   -205086.13    1.6189336 -0.00045719031    61.473057    4218.5521 
 1825000   -205085.19    1.6075222 -0.0037264865    61.511736    4231.9981 
 1830000   -205083.76    1.5714303 0.0027486333    61.449959    4245.4475 
 1835000   -205081.99    1.5847517 0.0032771446    61.381788      4258.89 
 1840000   -205284.24    1.5842021 -0.0023327495    61.408234    4272.3255 
 1845000   -205106.85    1.6000646 0.00097288712    61.397393    4285.7613 
 1850000   -204968.96    1.6273194 6.7333252e-05    61.461397    4299.2123 
 1855000      -205039     1.611306 -0.0029253396    61.425398    4312.6702 
 1860000   -205086.52    1.6013418 -0.0027878288    61.492145     4326.099 
 1865000    -205146.9    1.6119021 -0.00020256483    61.372366    4339.5435 
 1870000   -205160.18    1.5740017 0.0020312877    61.339124    4353.0069 
 1875000    -205266.7    1.6069394 0.0053826472    61.365475    4366.4383 
 1880000   -205043.39    1.6080747 0.0043617117      61.3847    4379.8669 
 1885000   -204968.97    1.5706296 0.0013710005    61.423245     4393.288 
 1890000    -205087.7    1.6005871 0.0036995855     61.43508    4406.7409 
 1895000   -205194.13    1.6497501 0.0027784678    61.409797    4420.2157 
 1900000   -205174.17     1.648264 0.0012860977    61.364966    4433.6633 
 1905000    -204880.7    1.5752726 -0.0048992764    61.542784    4447.1059 
 1910000   -205107.27    1.5703385 0.0015537127    61.418887    4460.5479 
 1915000   -205145.66    1.6265841 0.00047579103    61.377415    4474.0074 
 1920000   -205134.89    1.6273076  0.002555924    61.434004    4487.4689 
 1925000   -205192.62    1.5930286 0.0018924845    61.424667    4500.9287 
 1930000   -205054.36    1.5973146 0.0068506527    61.332395    4514.3695 
 1935000   -205165.36     1.606627 0.0046645605    61.353674    4527.7762 
 1940000    -204868.6    1.5885414 -0.0046493066      61.5591    4541.2324 
 1945000   -204732.13    1.6072803 -0.0019202945    61.537258    4554.6305 
 1950000   -204782.48    1.6145816 0.0022940909    61.492894    4568.0469 
 1955000   -204722.34    1.6187285  0.010282927    61.515806      4581.46 
 1960000   -204767.97    1.6005613 0.0021885049    61.536946    4594.9095 
 1965000    -204725.5     1.653406 0.00028534222    61.545887    4608.3192 
 1970000   -205020.16    1.5858539 0.0031802333     61.39872    4621.7449 
 1975000   -204882.69    1.5750259 -0.0051033053    61.545637    4635.1809 
 1980000   -204687.84    1.6192122 0.0010841948    61.570755    4648.5859 
 1985000   -204821.78      1.61767 0.0070983136    61.495201    4662.0209 
 1990000   -204852.24    1.5831912 -0.004299022    61.603001    4675.4432 
 1995000   -205170.09     1.627667 0.0010272674     61.40662    4688.8392 
 2000000   -205056.29    1.5410126 0.0054410702    61.383603    4702.2577 
 2005000   -205153.76    1.6423512 0.0031873275    61.412171    4715.6926 
 2010000   -205066.82    1.6231394 -0.0058152571    61.503939    4729.1848 
 2015000   -205079.97    1.6128135 -0.0053184934    61.462621    4742.6293 
 2020000   -205014.39    1.6361746 0.0017491728    61.440047    4756.1093 
 2025000   -204988.23    1.5783945 -0.0066917064    61.545923    4769.5653 
 2030000   -205088.49    1.5983103 0.0021400245    61.465806    4782.9915 
 2035000   -204921.95    1.5925835 -0.0017029247    61.527241    4796.4376 
 2040000   -205014.28    1.6136002 0.0051806477    61.468331    4809.8613 
 2045000   -205040.36    1.6187567 0.0036125593    61.400712    4823.2675 
 2050000   -204985.64    1.6261054 -0.00034197503     61.43092    4836.7361 
 2055000   -204972.21    1.5940477 0.0069978951    61.376895    4850.1583 
 2060000   -204989.53    1.6064193 0.0024300164    61.482121    4863.6269 
 2065000   -205043.98    1.5842112 -0.00052539362    61.462699    4877.0385 
 2070000   -205230.47    1.5643962 -0.0015115707    61.429653    4890.4627 
 2075000   -205024.17    1.6203196 -0.0034233084    61.516769    4903.9125 
 2080000   -204987.26    1.6190374 -0.00072518928    61.539538    4917.3206 
 2085000   -204939.31    1.5765877 0.0021006159    61.465906    4930.7618 
 2090000   -205118.69    1.6066047 0.0048493878    61.387274    4944.1644 
 2095000   -204935.35     1.594939 -0.0040200054    61.526621    4957.5989 
 2100000   -205238.17    1.6278415 -0.0024140148    61.445477    4971.0204 
 2105000   -205231.58    1.5599144 0.0014443854    61.392946    4984.4547 
 2110000   -205119.58    1.6368903 0.00064231766    61.435854    4997.8807 
 2115000    -204870.3    1.6154275 -0.004236722    61.561273    5011.3244 
 2120000   -204884.08    1.6167456 -0.00054912939    61.483584    5024.7902 
 2125000   -205156.43    1.6106292 -0.0022036704    61.430641    5038.2402 
 2130000   -204943.55    1.6341323 0.0020414058    61.451209    5051.6897 
 2135000   -204982.55    1.6320265  0.001098733    61.515974    5065.1541 
 2140000   -205088.91    1.5711372 -0.0023372679    61.475285    5078.6078 
 2145000   -205224.43    1.5957935 0.0023734439    61.407819    5092.0807 
 2150000    -204993.1    1.5862907 -0.0068210353    61.550648    5105.5425 
 2155000   -205080.62    1.5838507 -0.0045804517    61.491211    5119.0552 
 2160000    -205153.2    1.6118433 -0.0012027371    61.370174    5132.5273 
 2165000   -205150.27    1.5833913 0.0016945271    61.411316    5146.0095 
 2170000   -205108.22    1.6152145 0.00087424344    61.471728    5159.5068 
 2175000   -204973.46    1.5843239 -0.0030912287    61.524273    5172.9921 
 2180000   -204863.57    1.5899701 -0.0019066788    61.568527    5186.4108 
 2185000   -205045.59    1.5925873 0.00012208936     61.43759    5199.8683 
 2190000   -205062.19    1.6197531 0.0011637907    61.441562    5213.3524 
 2195000   -205198.05    1.5825522 -0.00025111103    61.409765    5226.8312 
 2200000   -205239.64    1.6270947 -0.00030402144    61.410836    5240.3455 
 2205000   -205021.59    1.6012634 0.0025293961    61.428062    5253.8004 
 2210000   -205023.53    1.6071599 0.0010415124    61.442873    5267.2657 
 2215000   -205104.52     1.599328 9.0862687e-05    61.527008    5280.7313 
 2220000   -205015.45    1.5407483 -0.0054079079    61.551559    5294.1823 
 2225000   -204993.83    1.5767232 -0.002418713    61.509371    5307.6289 
 2230000   -204978.46    1.6153631 0.00094420228    61.469403    5321.0216 
 2235000   -204845.57    1.5749008 -0.0026369544    61.545534    5334.4689 
 2240000    -204947.4    1.5834445 -0.001365811    61.493754    5347.9308 
 2245000   -204892.51     1.584522 -0.0012833627    61.500136    5361.4063 
 2250000   -204816.36    1.6417912 -0.0035358268    61.557206    5374.9062 
 2255000   -204621.36    1.6051042 0.0029297246    61.539551    5388.3032 
 2260000   -204680.67    1.6506089 0.0052038658    61.531086    5401.7403 
 2265000   -204701.29     1.615196 0.0013916229    61.543394    5415.1624 
 2270000   -204749.11    1.5864215 -0.0022931719    61.553958    5428.6108 
 2275000    -204865.6    1.6040458  0.002754552    61.478876    5442.0606 
 2280000   -204970.25    1.5658538 -0.0027129497    61.468173    5455.4941 
 2285000   -204873.52    1.5752987 0.0023315749    61.493213    5468.9402 
 2290000   -204757.11    1.5878588 -0.0042387656    61.621187     5482.356 
 2295000   -204608.22    1.5961519 -0.0023750793    61.616109    5495.7846 
 2300000   -204952.46    1.6012681 0.0040327159    61.487084    5509.1917 
 2305000   -204687.22    1.6354245  0.010040606    61.504112    5522.6529 
 2310000   -204940.83    1.6007882 -0.001949131     61.52345    5536.0974 
 2315000   -204807.74    1.6774749 0.0022757305    61.524828    5549.5463 
 2320000   -204719.59    1.6032488 0.0020724782    61.549923    5562.9827 
 2325000   -204844.98    1.6079526 0.0006373103     61.51999    5576.3853 
 2330000   -204855.66    1.5634931 -0.0032622015    61.549059    5589.8198 
 2335000   -204668.77     1.646552 0.0002317729    61.554385    5603.2285 
 2340000   -204665.97    1.6248432 0.0029493501    61.508314    5616.6539 
 2345000    -204706.4    1.5523094 0.00097190454    61.500129    5630.0728 
 2350000   -205137.16    1.5791417 0.0047252328    61.384296    5643.5498 
 2355000   -204947.76    1.6002363 0.0020345246      61.5151    5657.0117 
 2360000   -204797.37     1.609269 -0.00053892443    61.572874    5670.4469 
 2365000   -204677.36    1.6152625 0.0018631509    61.532537    5683.8675 
 2370000   -204729.32     1.582814 0.0051021297    61.511331    5697.2761 
 2375000   -204943.35    1.5875375 -0.00061178302    61.492622    5710.6901 
 2380000   -204815.89    1.5717027 -0.0038036438    61.543723    5724.1236 
 2385000   -204787.44    1.6220428 -0.0051464929    61.634868    5737.5746 
 2390000   -204488.75    1.5936241 -0.0045132611    61.736909    5750.9536 
 2395000   -204663.25    1.5274118 -0.0027880308    61.678874    5764.3439 
 2400000      -204964    1.5588801 0.0022438631    61.484817    5777.7578 
 2405000   -204717.51    1.5976252 -0.0005470965    61.611613    5791.1959 
 2410000   -204872.88     1.624869 0.00082426085    61.518966      5804.64 
 2415000   -204819.52    1.6018634 -0.0021569121    61.555685    5818.0125 
 2420000   -204968.61     1.582512 0.00092033622    61.457222    5831.4806 
 2425000   -204947.15    1.5858379 -0.0065989818    61.611769    5844.9108 
 2430000   -204759.83    1.6226025 1.2903214e-05    61.523139    5858.3553 
 2435000   -204845.16     1.590657 -0.0052207168    61.617022    5871.7713 
 2440000   -204745.27      1.58523 0.0035736976    61.501178    5885.2103 
 2445000   -204738.35    1.6346732  0.012311431    61.420499    5898.6739 
 2450000   -204776.47      1.60409 -0.0012753312    61.588964    5912.1224 
 2455000   -205173.73     1.579803 -0.0034135442    61.522196    5925.5816 
 2460000   -204991.33    1.5970473 0.0012367974    61.486229    5938.9942 
 2465000   -205096.65    1.5898376 -0.0015800985    61.468952    5952.4363 
 2470000   -204954.84    1.6296389 0.00041085944    61.482735    5965.8903 
 2475000   -204958.15    1.5960649 -0.0015471075    61.498704    5979.3086 
 2480000   -205040.36    1.5600378 -0.0035574128    61.489574    5992.7391 
 2485000    -205047.1    1.5710092 -0.0023424406    61.516649    6006.1441 
 2490000   -204983.46    1.5449657 -0.0023803435    61.587455    6019.5654 
 2495000   -204773.33    1.6234087 0.0022193089    61.538593    6033.0249 
 2500000   -204827.93    1.6117667  0.001460355    61.534737    6046.4363 
 2505000   -204880.64    1.6205347 -0.0071726755    61.605783      6059.87 
 2510000   -204885.24    1.6202978 -0.00039943315    61.521154    6073.3574 
 2515000    -205217.3    1.5775671 -0.0028018989    61.482158    6086.8053 
 2520000   -205198.13    1.5710709 -0.0062667216    61.512609    6100.2663 
 2525000   -205224.29    1.6201037 0.0078438529    61.320542     6113.707 
 2530000   -205075.04    1.5908625   0.00332855    61.425659     6127.146 
 2535000    -205151.8    1.5944855 0.0069864621    61.355756    6140.5926 
 2540000    -205149.6    1.5942773 0.0011436305    61.442981    6154.0818 
 2545000   -204945.51    1.5637926 0.00086110763    61.498029    6167.5473 
 2550000   -204910.33     1.564071 -0.0054484663    61.565432    6181.0043 
 2555000    -204908.5     1.583085 -0.0042804231    61.550914    6194.4334 
 2560000   -204955.26    1.6033224 -0.0063706404    61.563953    6207.8853 
 2565000   -205099.39     1.622399 0.0005682982    61.451972    6221.3293 
 2570000   -205313.24    1.5987887 -0.0051370948    61.456359    6234.7631 
 2575000   -205196.27    1.5980745 -0.00074240295    61.465903      6248.21 
 2580000   -205046.37    1.5925891 -0.0016063671    61.490617    6261.6302 
 2585000    -205078.2    1.5687893 0.0004073425    61.441326    6275.0608 
 2590000   -205005.49    1.5816084 -0.0043404098    61.509126    6288.4898 
 2595000   -205018.46    1.6396879 0.00011962225    61.469947    6301.9515 
 2600000   -205008.94    1.6055246 0.0024825318    61.472023    6315.3896 
 2605000   -204997.14    1.5731468 -0.0030216935    61.528188     6328.863 
 2610000   -205029.48    1.6428173 0.0017067328    61.450014    6342.3061 
 2615000   -204975.37    1.5724372 0.0023525952    61.442648    6355.7131 
 2620000   -205042.06    1.5873848 0.0034796987    61.455277    6369.1226 
 2625000   -204978.59    1.6296394 0.00066207487     61.48579    6382.5553 
 2630000   -205037.75    1.6170473 -0.0016944022    61.520566    6395.9759 
 2635000   -205012.02    1.6288471 -0.0019561833    61.533238    6409.4268 
 2640000   -204983.37    1.5893494 -0.0045631265    61.555189    6422.8499 
 2645000   -205093.46    1.6041251 -0.0034578528    61.543156    6436.2599 
 2650000    -205202.1    1.6131152 0.00074380981    61.466182    6449.7023 
 2655000   -205204.85    1.6144525 0.0039049519    61.416812    6463.1275 
 2660000   -205145.88    1.6153859 0.0034645125    61.379505    6476.5734 
 2665000   -205070.52      1.58481 0.0033220167    61.403991     6490.031 
 2670000   -204937.85    1.5770583 0.0010752412    61.449916    6503.4611 
 2675000   -205044.51    1.6197439 -0.0011662485    61.483498    6516.9056 
 2680000   -205023.56     1.594305 0.0023198931    61.452894    6530.3307 
 2685000    -204784.8    1.6181614 0.0040288481    61.508357    6543.7714 
 2690000   -204653.65    1.5990762  0.004503693    61.604502    6557.1862 
 2695000   -204695.66    1.5916867 -0.0009679463    61.630509    6570.5875 
 2700000    -205086.4    1.5981483 0.0065531299     61.42424    6584.0218 
 2705000   -204986.79    1.5838092 0.0022985502    61.486413    6597.4343 
 2710000   -204898.22    1.5796443 -0.0019708479    61.543803      6610.84 
 2715000   -205044.65    1.5929375 0.0038858133    61.455798    6624.2779 
 2720000   -204763.37    1.6006198 0.00054526547    61.610229    6637.6987 
 2725000   -204776.38    1.5873925 0.0012294136    61.622577    6651.1012 
 2730000   -204904.61    1.5813193 -0.0011189844    61.526686    6664.5183 
 2735000   -204869.18    1.6097408 0.0036128271     61.50265     6677.967 
 2740000   -204926.06    1.6143825 -0.0075138669    61.674295    6691.3647 
 2745000   -204868.37      1.58135 -0.0038150032    61.580816    6704.7881 
 2750000   -204971.73     1.599919 -0.0014955151    61.523515    6718.2013 
 2755000   -205037.78    1.6164441 0.0027307615    61.415295    6731.6331 
 2760000   -205018.87    1.5809716 0.0051509877    61.429988    6745.0926 
 2765000   -205073.29    1.5883684 -0.00021268612    61.441198    6758.5435 
 2770000   -204957.88    1.6234096 -0.00039386181    61.528729    6771.9932 
 2775000    -204614.4    1.6206957 0.0017507774    61.518658    6785.4381 
 2780000   -204704.76    1.5580211 -0.0063817819    61.607854    6798.8811 
 2785000   -204848.22    1.5890824 -0.0090105062    61.606179    6812.2912 
 2790000   -204978.83    1.5905424 0.0030748816    61.437343    6825.7198 
 2795000   -205069.68    1.5808974 0.0040632525    61.383104    6839.1588 
 2800000   -204912.78    1.6152337 -0.00094645558    61.454046    6852.6177 
 2805000   -204855.32    1.6008397 -0.0018859386     61.53075    6866.0771 
 2810000   -204772.14    1.5440699 -0.0022629762    61.575638    6879.5143 
 2815000    -204874.4    1.5658937 0.0065398429    61.428253    6892.9381 
 2820000   -204799.83    1.5964413 -0.0037197217     61.58543     6906.353 
 2825000   -204926.37     1.586247 -0.0018275285    61.539072    6919.7971 
 2830000   -204863.56    1.5902541 0.0025661825    61.527215    6933.2323 
 2835000   -204976.54    1.5724975 -0.00012517705    61.477341    6946.6535 
 2840000   -204986.17    1.5822157 -0.0021682731    61.557481    6960.0803 
 2845000   -204881.27    1.6156754 -0.0055145188    61.575781    6973.5176 
 2850000    -204714.4    1.5900809 -0.0020876145    61.570035    6986.9538 
 2855000   -204807.64     1.625259  0.001000712    61.531876    7000.3811 
 2860000   -204861.92    1.6075535 0.0018727349    61.521165    7013.8192 
 2865000   -204856.22    1.5921881 -0.0010929744    61.558397    7027.3202 
 2870000   -204905.74    1.5789239 0.0031264806     61.48159     7040.753 
 2875000   -204999.06    1.6205289 0.0036598876     61.45757    7054.1719 
 2880000   -204916.62    1.5508709 -0.0024403565    61.563885    7067.5904 
 2885000   -204878.33    1.5902854 -0.0031977664    61.589886    7081.0106 
 2890000   -204721.51     1.594953 -0.0049296388    61.605886    7094.4008 
 2895000   -205098.16    1.6272403 0.0081235996     61.38558    7107.8442 
 2900000    -205033.4    1.5993308 0.0035792077    61.405481    7121.2783 
 2905000   -205039.14    1.6121587 0.0010580271    61.483438    7134.7266 
 2910000   -204873.35    1.5536938 0.0031944434    61.457598     7148.155 
 2915000   -204859.97    1.6345909 0.0026253132    61.505978     7161.593 
 2920000    -204829.1    1.5845026 0.00094964336    61.483188    7175.0679 
 2925000   -204910.35    1.5765749 0.0010931228    61.497614    7188.5166 
 2930000   -204794.02    1.5844587 -0.0082148955    61.614084    7201.9379 
 2935000   -204903.45    1.6374736  0.004117046    61.510546    7215.3455 
 2940000   -204931.04    1.6033194 0.0053811025     61.45838    7228.7682 
 2945000   -204976.41    1.5466333 0.0029765558    61.483397    7242.2055 
 2950000   -204886.73    1.5955718 0.0013415326    61.510922    7255.6685 
 2955000   -204677.87    1.5815639 0.0072652315    61.490539    7269.0596 
 2960000   -204910.38    1.5416683 -0.0017612458    61.574112    7282.4577 
 2965000    -204736.1    1.5993893 -0.0011891696    61.614301    7295.8747 
 2970000   -204853.52    1.6239593 0.0010180341     61.51496    7309.2878 
 2975000   -204872.94    1.6075449 -0.0031860668    61.562793    7322.7102 
 2980000   -204607.34    1.6254088 -0.00091258206    61.613015    7336.1296 
 2985000   -204729.07    1.6128191 0.0047562376    61.546802    7349.5171 
 2990000   -204696.02    1.5514278 0.0017481129     61.59223    7362.9278 
 2995000   -204714.31    1.5959164 0.0019658523    61.581586    7376.3335 
 3000000   -204709.61    1.5961229 -0.0020922979    61.596112    7389.7885 
 3005000   -204833.81    1.5705531 0.0037362453    61.561335    7403.2088 
 3010000   -204536.76     1.604759 -0.0010400781    61.665816    7416.6071 
 3015000   -205078.54    1.6088811 9.3537283e-05     61.46078    7430.0176 
 3020000   -204907.68    1.6152991 -0.0041639687    61.542584    7443.4709 
 3025000   -204620.69     1.565764 -0.0015456754    61.572985    7456.9306 
 3030000   -204748.33    1.5928237 4.3939266e-05    61.584475    7470.3581 
 3035000   -204823.88    1.6166855 -0.0025652744     61.53234    7483.7761 
 3040000   -204926.56    1.6225638 -0.0023347939    61.489861    7497.2039 
 3045000   -205168.56    1.6041132 0.0010692131    61.421205     7510.658 
 3050000   -205035.06      1.60092 -0.0015808582    61.490319    7524.0932 
 3055000   -204975.81    1.5583701 -0.0006277411    61.505255    7537.5193 
 3060000   -204947.32    1.5988598 0.0042759082    61.467311    7550.9904 
 3065000   -205025.22    1.5971874 0.0032969166    61.477619    7564.3905 
 3070000   -205117.84    1.5947159 -0.0014054207     61.45075     7577.809 
 3075000    -205043.5    1.5392995 -0.0022577868    61.458953    7591.2795 
 3080000   -204831.56     1.576784 -0.00045505236    61.506479    7604.7292 
 3085000   -204971.34    1.5947871 -0.0033762684    61.550652    7618.1756 
 3090000    -205102.2    1.6173705 0.0040618333    61.413158    7631.6233 
 3095000   -204986.85    1.5721091 -0.0019901596    61.507161    7645.0915 
 3100000   -205019.15     1.647536 -0.002077045     61.45781    7658.5199 
 3105000   -205133.96    1.6260595 0.0072722454    61.366742    7671.9356 
 3110000   -205125.07    1.5964729 0.0053299259     61.41693    7685.3671 
 3115000   -204896.96    1.6219454 0.00036453808    61.565721    7698.7692 
 3120000   -204928.09    1.6105394 0.0032965814    61.504682    7712.2213 
 3125000   -204931.41     1.658426 -0.0049532146    61.558811    7725.6654 
 3130000   -205004.07    1.6111949 -9.3158177e-05    61.473415    7739.0996 
 3135000   -205054.25    1.5582337 -0.0015106247    61.422729    7752.5503 
 3140000    -204986.8      1.60536  0.000816613    61.496185    7766.0228 
 3145000      -204924    1.5703354 0.0023168857    61.479875    7779.4971 
 3150000   -204870.96    1.6182415 -0.0020108601    61.551033    7792.9456 
 3155000    -204914.1    1.6369982 -0.00094414519    61.519678    7806.3939 
 3160000   -204861.75    1.6082237 -0.00077522369    61.561298    7819.8146 
 3165000   -204984.93    1.5897814 -0.0015960373     61.50143    7833.2417 
 3170000   -204977.15    1.6249727 -0.002169944    61.534978    7846.6908 
 3175000   -204769.31    1.5769812 -0.0045014938    61.598716    7860.1391 
 3180000    -204861.8    1.5796073 0.0059393863    61.493534    7873.5713 
 3185000   -204809.63    1.6235666 0.0011817186    61.533276      7886.99 
 3190000   -205024.92    1.5907728 0.0066781366    61.404282    7900.4547 
 3195000   -204968.44    1.6145028 -0.002567316    61.499241       7913.9 
 3200000   -205028.59    1.5888919 -0.0023268332    61.474199    7927.3235 
 3205000   -204812.82    1.5881312 -0.0022074866     61.57878    7940.7571 
 3210000   -204769.78      1.57912 -0.0013867943     61.58787    7954.2113 
 3215000   -204825.89    1.5945296 0.0026934417    61.428009    7967.6438 
 3220000   -205021.07    1.6285764 0.0037123233    61.457788    7981.0895 
 3225000   -204936.43    1.5783609 -0.00035399293    61.535712    7994.5591 
 3230000   -205054.57    1.5831339 0.00024572638    61.502316    8007.9801 
 3235000   -205080.27    1.5490725 0.0049755349     61.32371    8021.4125 
 3240000   -205124.61    1.5841005 0.00051895786    61.479879    8034.8462 
 3245000   -205086.38    1.5947494 -0.0035380246    61.520776    8048.2738 
 3250000   -205136.81    1.5881121 0.0055757862    61.451903    8061.7332 
 3255000   -205216.16     1.560292 -0.00095398957    61.484012    8075.1795 
 3260000   -205043.68    1.5657258 -0.0035243376    61.503063    8088.5844 
 3265000   -204973.02    1.5887762 0.0025833099    61.483841    8102.0422 
 3270000   -205085.73    1.6470909 0.0020295659    61.482574    8115.5119 
 3275000   -205043.98    1.6052786 -0.0032606293    61.476313    8128.9591 
 3280000   -205112.19    1.6129035 0.0055040771    61.427094    8142.3979 
 3285000   -204953.17    1.6173144 0.0032206818     61.45717    8155.8392 
 3290000    -204867.9    1.5600786 -0.0033408659    61.552573    8169.2859 
 3295000   -204681.97    1.5967319 0.0019967456    61.596199    8182.7213 
 3300000   -204650.99    1.6022758 6.032437e-05    61.605897    8196.1312 
 3305000   -204727.39    1.5796679 0.0023100776    61.591873    8209.5425 
 3310000   -204841.39    1.5205242 -0.001925451    61.605692    8222.9439 
 3315000   -204875.74    1.6108082 -0.0024223162    61.644932    8236.3289 
 3320000   -204848.12    1.6578062 -0.0024072898    61.599062    8249.7656 
 3325000   -204646.91    1.5934292 0.0010873809    61.608693    8263.1393 
 3330000   -204598.91    1.5891854 0.0050586007    61.544592    8276.5407 
 3335000   -204826.41    1.5913701 0.0026773312     61.56082    8289.9687 
 3340000    -204726.1    1.5782737 -0.00030350019     61.58681    8303.3671 
 3345000      -204756    1.5836608 -0.0019970265    61.634775    8316.7639 
 3350000   -204979.23    1.6095992 0.0015742929    61.520354    8330.1297 
 3355000   -205023.84    1.6208124 -0.00087907154    61.505918    8343.5551 
 3360000   -205083.29    1.5181859 0.00061405183    61.458736    8356.9779 
 3365000   -204860.32    1.6433414 0.0057740254     61.42749    8370.3915 
 3370000   -204704.21    1.6242852 0.0041391733    61.568843     8383.795 
 3375000   -204735.05    1.5903071 0.0033653655    61.592182    8397.1701 
 3380000   -205103.57    1.6120675 0.0021388148    61.461046    8410.5834 
 3385000   -204991.26    1.5971565 -0.0022198297    61.487226    8424.0322 
 3390000   -204871.32    1.6230675 -0.0050407352    61.543946    8437.4852 
 3395000   -204743.98    1.5831824 -0.00020206714    61.537856    8450.8692 
 3400000   -204843.93    1.5963298 -0.0046601941    61.625146    8464.2521 
 3405000   -204951.12    1.5949765 0.0036084468    61.482901    8477.6349 
 3410000   -205054.91    1.5618978  0.010387698    61.356596    8491.0987 
 3415000   -204876.88    1.5903955 0.0077417703    61.466419    8504.5663 
 3420000   -204738.17    1.5651292 -0.0037395297    61.629445    8517.9973 
 3425000   -204863.71    1.6075485 0.0028322863    61.526932    8531.4119 
 3430000   -205080.63    1.6234839 0.0016901708    61.420428    8544.8194 
 3435000   -204876.67    1.5996388 -0.0015899344    61.514372     8558.261 
 3440000   -205082.15    1.5956375 0.0066798044    61.383294    8571.6811 
 3445000   -204989.89    1.5863829 -9.7948014e-05    61.477341    8585.0875 
 3450000   -204926.25      1.62874 -0.0011515361    61.523847    8598.4992 
 3455000   -205031.04    1.5513876 -0.0069247141    61.512497    8611.9377 
 3460000   -204838.38    1.5926031  0.001381718    61.489725    8625.3463 
 3465000    -205098.4    1.6309408 -0.00033617226    61.482396    8638.7656 
 3470000   -205254.04    1.5933509 0.0067929386     61.39966     8652.174 
 3475000   -204996.37    1.5790781 0.0014606745    61.543724    8665.6251 
 3480000   -205019.57    1.6194456 -0.0035461178    61.529196    8679.0526 
 3485000   -205022.39    1.6048275 8.6031347e-05    61.492652    8692.4575 
 3490000   -205121.01    1.6069846 -0.0021215343    61.442392    8705.8563 
 3495000   -205047.11    1.5977144 0.0014095655    61.432265    8719.3125 
 3500000   -205072.49    1.5440913 0.0020516636    61.459902    8732.7722 
 3505000   -205064.11    1.5697665 0.0024001877     61.34885    8746.2531 
 3510000    -205000.5    1.6216165 0.00019599889    61.461894    8759.7345 
 3515000   -205354.44    1.5858659 0.0049327998    61.325923    8773.1873 
 3520000   -204997.96    1.6015952 0.0043946223    61.417553    8786.6849 
 3525000   -205110.01    1.5752881 -0.00016784253    61.485446    8800.1051 
 3530000   -205119.46    1.5918079 0.0035202487    61.406071    8813.5914 
 3535000   -205113.15    1.6180735 -0.001598261    61.523075    8827.0548 
 3540000   -204949.14    1.5762652 0.0051825569    61.407684    8840.4819 
 3545000    -205055.7    1.6206064 0.0018521825    61.464026    8853.9142 
 3550000   -204932.35    1.5841458 -0.0056704199    61.572571     8867.344 
 3555000   -205195.58    1.5884378 0.0027386768    61.469353    8880.7369 
 3560000   -204994.89    1.6194713 0.00055079494    61.473517    8894.1485 
 3565000   -205027.57    1.6080794  0.003580148    61.395054    8907.6152 
 3570000   -205040.07     1.602738 0.0032704405     61.41593    8921.0597 
 3575000   -205067.59    1.5931088 0.0061557164    61.430777     8934.506 
 3580000   -205129.28     1.578737 -0.0045392927    61.524554    8947.9424 
 3585000    -205071.2    1.6056833 0.00049310441    61.474825     8961.363 
 3590000   -205157.91     1.623424  0.007374334    61.351847    8974.8272 
 3595000   -204931.84    1.5723046 0.0004937535    61.534225    8988.2844 
 3600000    -205099.6    1.6447213 -0.0017538121    61.543226     9001.717 
 3605000   -205193.31    1.5991415 0.0036094968     61.40229    9015.1807 
 3610000   -205126.45    1.5907602 0.0012550995     61.44331    9028.6856 
 3615000    -205331.1    1.5962404 0.0022759788    61.391763    9042.1453 
 3620000   -205117.71    1.6298762  0.011195767     61.35825    9055.6359 
 3625000   -205104.11    1.6264806  0.001703234    61.416634    9069.0712 
 3630000   -204837.71    1.5961381 -0.0062667937    61.607886    9082.5138 
 3635000   -204902.97    1.6086697 -0.0036999038    61.589602    9095.9538 
 3640000   -205035.08    1.5993272 0.0028088551    61.457969    9109.3929 
 3645000   -204705.68    1.5659631 -0.0013350239    61.603346    9122.8437 
 3650000   -204765.45    1.5733898 -0.0062950992      61.6477     9136.259 
 3655000   -204845.19    1.6206392 0.00099158032    61.494789     9149.694 
 3660000   -204943.65    1.5901107 0.0035795442    61.460667    9163.1161 
 3665000   -204894.45    1.6069538 0.00083297525    61.551733    9176.5442 
 3670000   -205022.88    1.6165391 -0.0013159382    61.457672    9189.9827 
 3675000   -204997.53    1.6453462 0.0059447185    61.398599    9203.4285 
 3680000   -205095.27    1.6690726 0.0023763004    61.425447    9216.8719 
 3685000   -204973.32    1.5999593 -0.0073124865    61.569455    9230.2995 
 3690000   -204865.89    1.6024425  0.002232649    61.521627     9243.711 
 3695000   -204950.76    1.6012648 -0.002846215    61.527331    9257.1648 
 3700000   -205000.62    1.6082557 0.0029903824     61.48661     9270.606 
 3705000    -205098.8    1.5765342 0.0054137946    61.371486    9284.0629 
 3710000   -204985.35    1.5759951 -0.0036320741    61.524761    9297.4965 
 3715000   -205084.22    1.5738752 0.0017087865    61.444797     9310.952 
 3720000   -204986.85    1.6106213 0.0039922996    61.422863    9324.3979 
 3725000   -205020.04    1.6186951 -0.0045646253    61.540498    9337.8271 
 3730000   -204982.99    1.6884408 -0.0017459879    61.529971    9351.2549 
 3735000   -205157.83    1.6370149 -0.00057814547    61.455691    9364.6778 
 3740000   -205000.36    1.5958563 -0.0031256735    61.525216    9378.1009 
 3745000   -205076.11    1.6563115 0.0045157941    61.422284    9391.5711 
 3750000   -205031.19    1.5816935 0.0029694035    61.429506    9405.0101 
 3755000   -204894.86    1.5892041 -0.0040069647    61.503611    9418.4724 
 3760000   -204994.71    1.6190045  0.001055921    61.445578    9431.9331 
 3765000   -205070.45    1.5871063 0.00076293436     61.44843    9445.3665 
 3770000   -204920.96    1.6056571 0.0011503628    61.522395    9458.7697 
 3775000   -204951.68    1.5997055 0.0020840753    61.480206    9472.1892 
 3780000   -205002.73    1.5785528 0.0019055436     61.48615    9485.6254 
 3785000   -205002.86    1.5822146 -0.0021701563    61.508857     9499.063 
 3790000   -204952.48    1.6310229 0.0014871631    61.441107    9512.4928 
 3795000   -204852.71    1.6146974 -0.0020854277    61.564622    9525.9129 
 3800000   -205058.81     1.619527 -0.0018897968    61.523427    9539.3077 
 3805000   -204866.84    1.5888985 0.00035059075    61.504348     9552.763 
 3810000   -204880.08     1.580414 -0.0063117168    61.609902    9566.1696 
 3815000   -204913.96    1.5891611 0.0091875373    61.408905    9579.5777 
 3820000   -205011.56    1.6151536 -0.0039230636    61.537136    9593.0357 
 3825000   -204952.85    1.5771961 -0.00084675524     61.46354    9606.4547 
 3830000   -205007.63    1.6110069 0.0026751845    61.415963    9619.9257 
 3835000    -205046.5    1.6926464 -0.0017244119    61.440735    9633.3635 
 3840000   -204863.98    1.6036713 -0.0030300016    61.529786    9646.7998 
 3845000   -205054.62    1.5790247 -0.007674135    61.532822    9660.2559 
 3850000   -205080.18    1.5748624 -0.0040483208    61.475459    9673.7135 
 3855000   -204928.11    1.6145858 0.00029940268    61.488573    9687.1671 
 3860000   -205013.29     1.598823 0.0028295961    61.439976    9700.6078 
 3865000   -204868.53    1.5743778 -0.00087719343    61.547842     9714.008 
 3870000   -204943.33    1.6005451 0.0029837132     61.44523     9727.419 
 3875000    -204768.3    1.6549721 0.0027650049    61.516457     9740.896 
 3880000   -204673.71     1.604458 -0.0027592802    61.571588    9754.3055 
 3885000   -204822.21    1.5700005 0.0022686209    61.528643    9767.7595 
 3890000   -204734.59    1.5832964 -0.0044299963    61.616563    9781.1959 
 3895000   -204761.85    1.6199363 -0.0045022827    61.583143    9794.6218 
 3900000   -204910.29    1.5876262 -0.0014548247    61.503911    9808.0343 
 3905000   -204888.55    1.6465179 -0.0049800857    61.561918    9821.5015 
 3910000   -204978.44    1.5914108 -0.0020640595    61.516142    9834.9572 
 3915000   -205103.35    1.6307029 0.0048818503    61.434724    9848.4129 
 3920000    -204933.6    1.6091444 0.0037603591    61.493756    9861.8699 
 3925000   -204764.73    1.6161733 0.0010141175    61.518346    9875.2855 
 3930000   -204853.83    1.6419278 0.00015021196    61.534179    9888.7197 
 3935000   -205027.24    1.5959269 0.0032888533    61.387148    9902.2049 
 3940000   -205032.56    1.6037533 0.0042407334    61.376515    9915.6343 
 3945000   -205031.45    1.5654907 -0.0014437575    61.463818    9929.0599 
 3950000   -205057.96    1.5919801 0.0025917767    61.425373    9942.5172 
 3955000   -205088.88    1.6730185 -0.00053716314    61.439429    9955.9821 
 3960000   -205051.83    1.5721687 -0.0013950948    61.489573    9969.4132 
 3965000   -205101.81    1.6176952 0.00037531518    61.399294    9982.8487 
 3970000   -204993.21    1.6070548 -0.0011766115    61.428337    9996.3272 
 3975000   -204941.02    1.6181319 -0.0029080075    61.490179    10009.775 
 3980000   -204998.41     1.616206 -0.0063320034    61.485023    10023.234 
 3985000   -205163.76    1.6009557 0.0033728925    61.378851    10036.677 
 3990000   -204997.31    1.6019811 0.0023436626    61.498551    10050.143 
 3995000   -204990.35     1.617661 -0.00085348684    61.477857    10063.586 
 4000000   -205221.95    1.6449391 0.0044827168    61.367783    10077.002 
 4005000    -205035.8    1.6308788 -0.0013371928    61.467461    10090.448 
 4010000   -205206.98    1.5991664 0.0036978126    61.428825    10103.891 
 4015000   -205098.18    1.5502338 4.7965879e-05    61.446774      10117.3 
 4020000   -204954.84     1.586293 0.0017495534    61.401224    10130.778 
 4025000   -205187.02    1.5874174 -0.00073355935    61.418608    10144.208 
 4030000   -205250.38    1.6148741 -0.0046292885    61.460069    10157.645 
 4035000   -205185.13    1.5621697 0.0043668676    61.353471    10171.098 
 4040000   -205128.77    1.6048769 0.0047813573      61.3896    10184.542 
 4045000   -205144.68    1.6594127 0.0078446744    61.455877    10197.963 
 4050000   -204994.38    1.5747059 -0.0054485667    61.552842    10211.398 
 4055000   -205008.99      1.63781 -0.0031664642    61.560028    10224.811 
 4060000   -204800.98    1.6002837 0.0018294495    61.481506    10238.236 
 4065000   -205111.75    1.6271285 0.0057716981    61.421953    10251.655 
 4070000   -205097.85    1.6178344 0.0069530745    61.319519    10265.122 
 4075000   -205002.04    1.6006219 -0.0039226096    61.516003     10278.56 
 4080000   -205121.05    1.5917009 0.0032373996    61.409414    10292.056 
[...]
 9085000   -205229.39     1.604824 -0.00057739156    61.367635    23739.989 
 9090000   -205138.94    1.6209075 0.0022721879    61.424396    23753.401 
 9095000   -204970.43    1.6215745 -0.00077258489    61.441531    23766.846 
 9100000   -204971.61    1.5790602 0.0003204358    61.432273    23780.274 
 9105000   -205112.34    1.6126102 0.00041275319     61.42139    23793.693 
 9110000   -204976.31    1.6180028 -0.0052063156    61.571238    23807.138 
 9115000   -204850.15    1.5904199 0.0047304391    61.452889    23820.536 
 9120000   -204930.24    1.5772291 -0.0042885108    61.575769    23833.994 
 9125000   -204954.73    1.6051084 0.0036424935    61.449044    23847.403 
 9130000   -204977.02    1.5785098 0.0027209015    61.513896    23860.841 
 9135000   -204763.07    1.5450094 -0.0014111325     61.64487    23874.243 
 9140000      -204708        1.641 -0.0057725659    61.687986    23887.642 
 9145000   -204958.11    1.5799717 0.00096534412    61.495195     23901.07 
 9150000   -204916.79    1.5752397 -0.0023259498    61.522537    23914.483 
 9155000   -204753.51    1.5801143 0.0024406882    61.513505    23927.892 
 9160000   -204753.48    1.6473017 -0.0032242951    61.578587    23941.294 
 9165000   -204756.83    1.6059594 0.0040151145    61.487223    23954.753 
 9170000   -204821.95    1.6337603 -0.0016895595    61.553416    23968.235 
 9175000   -204813.08    1.5857084 -0.0016168568    61.552835    23981.705 
 9180000   -204960.04    1.6102839 0.0014108209     61.47212     23995.17 
 9185000   -204947.24    1.6034112 0.0067964734    61.425173    24008.626 
 9190000   -204950.11    1.6093161 0.00037015244     61.48174    24022.041 
 9195000   -204999.58    1.5550033 0.0059147424    61.400019    24035.438 
 9200000      -204867    1.5643147 -0.0053763245    61.634278    24048.912 
 9205000   -204753.87    1.5742859 -0.0049177937    61.640764    24062.318 
 9210000   -204852.76    1.5962702 -0.0070684383    61.614219    24075.764 
 9215000   -204810.57    1.6442665 -0.0017392418    61.582661    24089.139 
 9220000   -204809.35    1.5754941 0.0054789203    61.516761    24102.567 
 9225000   -204722.02    1.6355985 0.00030622499    61.590113    24115.988 
 9230000   -204885.47    1.6115681 0.0039931619    61.496168    24129.423 
 9235000   -204719.91    1.6271023 0.0039517012    61.532429    24142.811 
 9240000   -204861.92    1.5860149 -0.0013351667    61.534211    24156.219 
 9245000   -204780.85    1.5883349 -0.0045025723    61.563264    24169.642 
 9250000   -204671.89    1.5696647 -0.0036519759    61.565731    24183.077 
 9255000   -204799.75    1.5989083 0.0016981901    61.491055    24196.511 
 9260000   -204933.48    1.6079321 0.00044058636    61.487885    24209.947 
 9265000   -204950.27    1.5956426 -0.013011185    61.730091    24223.408 
 9270000   -204820.09    1.6504084 -0.0053785408     61.59701    24236.839 
 9275000   -204789.49    1.5522528 0.0017332432    61.557678    24250.225 
 9280000   -204730.08    1.5738281  0.001729364    61.534926    24263.604 
 9285000   -204613.49    1.5559308 -0.0012572964    61.630254    24277.001 
 9290000   -204704.23     1.608152 -0.0043703121    61.639298    24290.377 
 9295000   -204742.05        1.607 -0.0017626364    61.574131    24303.787 
 9300000   -204897.39    1.6208038 -0.0017230282    61.513824    24317.216 
 9305000   -204652.73    1.5756744 -0.00052008199    61.607395    24330.652 
 9310000   -204907.39    1.6167617 -0.002665994    61.501964    24344.067 
 9315000   -205111.29    1.5717435  0.001541386    61.380121    24357.482 
 9320000   -204954.58    1.6310104 -0.00030503269    61.435842    24370.933 
 9325000   -204729.43    1.6175559 -0.0043950282    61.641186    24384.348 
 9330000   -205032.41    1.5885127 -0.00028458399    61.547292    24397.796 
 9335000   -204805.98     1.592811 0.0025466787    61.521234    24411.199 
 9340000   -204887.17    1.5689498 -0.0019258799    61.536937     24424.62 
 9345000   -204901.57    1.5502488 0.00020482727    61.490996    24438.041 
 9350000   -205108.55    1.5419382 -0.0032090292    61.445332    24451.504 
 9355000   -204995.42    1.5885728 0.0039222283     61.42851    24464.938 
 9360000   -204932.85    1.5885264 -0.00091319125    61.554412    24478.393 
 9365000   -204983.39    1.5722494 -0.0051650663    61.581449    24491.885 
 9370000    -204918.6    1.6030569 0.0010855915    61.518008    24505.317 
 9375000    -204865.2    1.6085829 0.0014887575    61.525936    24518.752 
 9380000   -204985.71    1.6395882 0.0029680921    61.487009    24532.194 
 9385000   -204963.65    1.5871995 0.0029404176    61.445084    24545.629 
 9390000   -205110.65    1.6118084 -0.0017722178    61.482285     24559.05 
 9395000   -205025.68    1.5611515 0.0016067166    61.463261    24572.466 
 9400000    -204859.2    1.5871977 -0.0019455967    61.523219    24585.933 
 9405000   -204908.27    1.6099952 0.0032609342    61.462582     24599.36 
 9410000   -204804.81     1.553303 -0.0072053819    61.626286    24612.811 
 9415000   -205149.66    1.6058545 -0.0016985062    61.431471    24626.247 
 9420000   -205194.43    1.6349195 -0.0049347611    61.479476    24639.657 
 9425000   -205202.32    1.5538131 -0.0027148866    61.456594      24653.1 
 9430000   -204994.52    1.5681845 -0.0048791337    61.547578    24666.521 
 9435000   -205148.66    1.6212584 0.00077047115    61.454479    24679.956 
 9440000   -204889.25    1.6316822 0.0024452317    61.490302    24693.365 
 9445000   -204991.14    1.6352952  0.003246325    61.450301    24706.814 
 9450000   -205098.83    1.6155172 0.00097538077     61.41073     24720.26 
 9455000   -205070.66    1.5830253 0.0052581423     61.37185    24733.699 
 9460000   -205092.15    1.5791541 -0.0023257704     61.39356    24747.161 
 9465000   -204920.64    1.5756101 0.0038152524    61.402215    24760.622 
 9470000   -205037.46    1.5922067 0.0040858444    61.464671    24774.065 
 9475000   -204981.76     1.607791 0.0054721989     61.44166    24787.478 
 9480000   -205064.86    1.5946734 -0.0049116299    61.529436    24800.922 
 9485000   -205132.11    1.6200858 0.0072459967    61.345133    24814.376 
 9490000   -205247.94    1.5321835 0.0021062367    61.374985    24827.808 
 9495000   -205106.96    1.5668171 -0.00064726317    61.472487    24841.289 
 9500000   -205146.51    1.6016067 -0.0045879974    61.491711    24854.755 
 9505000   -204951.42    1.5994349 0.0086995019     61.37913    24868.185 
 9510000   -204936.45    1.6369328 -0.00068874174    61.493079    24881.593 
 9515000   -205003.21     1.613185 0.0068423625    61.418992    24895.038 
 9520000    -204865.2    1.6164197 0.0011894537    61.490121    24908.495 
 9525000   -204992.45    1.5767811 -2.7671797e-05    61.413376    24921.899 
 9530000   -205306.64     1.569167 -0.0031300601    61.405215    24935.346 
 9535000   -205031.52    1.6168474 0.0021444028     61.42172    24948.818 
 9540000   -205265.13    1.6641297 -0.00099799775    61.424469    24962.243 
 9545000   -204977.27    1.5690586 0.00057146725    61.406965    24975.698 
 9550000   -205095.86    1.6507746 -0.0012762832    61.462358    24989.121 
 9555000   -205066.84    1.6302876 -0.0028198252    61.497934    25002.571 
 9560000   -205094.16    1.5800578 0.0017068909      61.4308    25015.982 
 9565000   -205012.62    1.5519088 -0.0031566368    61.501058    25029.423 
 9570000   -205039.97    1.6125082 0.0010958758    61.447374     25042.85 
 9575000   -205207.73    1.5981714 -0.0022736722    61.471367    25056.272 
 9580000   -205100.14    1.5680014 0.0034460763    61.399625    25069.715 
 9585000   -205138.31    1.5655293 0.0036838103    61.381783    25083.156 
 9590000   -205102.38    1.5673323 0.00077224032    61.452736    25096.593 
 9595000   -204758.69      1.63385 0.0010853304    61.545467    25109.993 
 9600000    -205173.4    1.6008762 0.0033993051     61.41042    25123.403 
 9605000   -205179.97    1.6575287 -4.0941497e-07    61.399338    25136.886 
 9610000    -205008.7     1.566475 -0.0044143911    61.551753    25150.343 
 9615000   -204999.11    1.6076044 -0.0015205545    61.489701    25163.829 
 9620000   -204979.39    1.6291772 -0.0005430297    61.464437    25177.287 
 9625000    -205023.1    1.5986051 -0.0056435087     61.52236    25190.737 
 9630000   -205103.72    1.5978312 -0.0006618772     61.44381    25204.197 
 9635000   -204950.21    1.6212517 0.0023820254    61.500723    25217.653 
 9640000   -205129.91     1.641462 0.0022593127     61.39883    25231.077 
 9645000   -205119.72    1.6283443 -0.0043061646     61.49423    25244.525 
 9650000   -205086.63    1.5499837 0.0035642775    61.453298    25257.932 
 9655000   -204906.66    1.6044184 -0.004361325    61.558207    25271.414 
 9660000   -205111.52    1.5678459 -0.00087278405    61.420848    25284.871 
 9665000   -205186.23    1.5791211 -0.00091769292    61.431879    25298.313 
 9670000   -205138.66    1.6164121 -0.0038872469    61.468406    25311.752 
 9675000   -204973.53    1.6209119 -0.00070944638    61.509391    25325.165 
 9680000    -205039.6     1.568641 0.0057844529     61.38479    25338.625 
 9685000   -204868.18    1.6018458 0.0038951718    61.443324    25352.125 
 9690000   -204682.25    1.6089624 -0.0068031941    61.640171    25365.575 
 9695000   -204690.49    1.5872195 0.00018982243    61.570408        25379 
 9700000   -204653.54    1.5954836 0.00084445129    61.605545    25392.413 
 9705000   -204955.17    1.5976124 0.0039400869     61.46988    25405.844 
 9710000   -204862.98    1.6386134 0.0058668617    61.476609    25419.241 
 9715000   -204721.79    1.5931544 0.0038726724    61.564151    25432.643 
 9720000   -204848.09    1.5932954 -0.0036005584    61.617974    25446.103 
 9725000    -204874.3    1.6297241 0.00053480004     61.54525     25459.51 
 9730000    -204781.8    1.5850809 -0.0027119442    61.574213     25472.92 
 9735000   -204795.44    1.5981657 0.0033342591    61.517446    25486.303 
 9740000   -204875.85    1.5612604 9.613044e-05    61.553898    25499.737 
 9745000   -204967.37    1.5604322 0.0061268604    61.450874    25513.125 
 9750000   -204773.63    1.6102049 0.0076696166    61.475743    25526.523 
 9755000   -204807.34    1.6078125 -0.0045531604    61.590521    25539.903 
 9760000   -204800.53    1.6532291 8.3196264e-06    61.615576    25553.319 
 9765000   -204601.26    1.5621851 -0.00082791166    61.676357    25566.674 
 9770000   -204694.82    1.6030355 -0.00010153806    61.588707     25580.06 
 9775000   -204826.42    1.6121673 -0.0057590626    61.613749     25593.47 
 9780000   -204901.92    1.5584437 0.0019725268    61.507808    25606.893 
 9785000   -205090.67     1.583928 -0.0012734005    61.502647    25620.291 
 9790000   -205091.06    1.6024696 -0.0025710778    61.460045    25633.742 
 9795000   -205063.29    1.5869945 -0.0041391893    61.527826    25647.172 
 9800000   -204835.11    1.6013208 -0.00052870174    61.520304    25660.645 
 9805000   -205115.85    1.6253654 -0.0014712843    61.504421    25674.132 
 9810000   -204922.83    1.5500539 0.0027064364    61.512422    25687.565 
 9815000    -204971.7    1.5803215 -0.00050110211    61.461336        25701 
 9820000   -205103.82    1.5791971   -0.0040719    61.434416    25714.406 
 9825000   -204952.14    1.6392727 0.0016887973    61.465536    25727.888 
 9830000   -205043.99    1.6544275 0.0028786179     61.41369    25741.359 
 9835000   -205367.02    1.6374198 0.0013876299    61.377692    25754.824 
 9840000   -204884.62    1.5878689 -0.00067654431    61.499947    25768.278 
 9845000    -204899.5    1.5756723 -0.0055003919    61.535404    25781.757 
 9850000   -204818.02    1.5966793  0.011137044    61.435591    25795.194 
 9855000   -204739.15    1.6331198 0.0022352436    61.521864    25808.635 
 9860000   -205099.61    1.5985274 -0.0021002992    61.468148    25822.082 
 9865000   -204783.45     1.624405 0.0051874466    61.503248    25835.539 
 9870000   -204937.96    1.6298635 0.0022163991    61.476002    25848.953 
 9875000   -204824.71    1.5755298 -0.0055658484    61.584426    25862.402 
 9880000   -204878.21    1.5975611 0.0036244144    61.453933    25875.822 
 9885000   -205124.23      1.57605 0.00048449492    61.457101    25889.248 
 9890000    -205114.3    1.5898459  0.002003599     61.38217    25902.661 
 9895000   -205159.27    1.6144023 0.00017509791    61.398294     25916.13 
 9900000   -204836.26    1.5881975 -0.0078560792    61.610782    25929.578 
 9905000   -204690.97    1.6040109 0.0052258032    61.551606    25943.013 
 9910000   -204747.33    1.6232194 0.00022054043    61.606278    25956.482 
 9915000    -204859.3    1.5311056 -0.0061558437    61.611282    25969.903 
 9920000   -204924.28    1.6140434 -0.0043190169    61.552604    25983.343 
 9925000   -204782.75    1.5966944 0.0007746982    61.524794     25996.79 
 9930000   -204888.08    1.5524445 -0.0016781874    61.530397    26010.207 
 9935000   -204978.08    1.6011642 0.0069085729    61.437794    26023.621 
 9940000   -204926.35    1.6538001 0.0071710127    61.477684    26037.044 
 9945000   -204866.26    1.5766812 0.00084716517     61.45869    26050.473 
 9950000   -204945.25    1.5546394 0.0034365106       61.458    26063.886 
 9955000   -204728.02    1.5301898 -0.0040139792    61.551672    26077.317 
 9960000   -205021.18    1.6131302 0.00055898079    61.473486    26090.753 
 9965000   -204923.68    1.6345903 -0.00017909177      61.5219    26104.196 
 9970000   -205041.92    1.6208864 0.0017066773    61.486518    26117.645 
 9975000   -204700.84    1.5966186 0.0040091453    61.530176    26131.058 
 9980000   -204907.59    1.5908564 0.0028570749    61.481863    26144.455 
 9985000   -204715.65    1.5818844 -0.0069642996    61.653882     26157.84 
 9990000    -205014.3    1.5939529 -0.0073705309     61.57076    26171.275 
 9995000   -205186.91    1.6010266 -0.0013974617    61.448777    26184.695 
10000000   -204974.09    1.6121484 -0.0036279164    61.539116     26198.09 
10005000   -204896.26    1.6178724 0.0020559568    61.480356    26211.527 
10010000   -205022.61    1.5441788 -0.0021325258    61.445571    26224.959 
10015000   -205047.29     1.632529 -0.0023435559    61.510462     26238.41 
10020000   -204933.26    1.5243106 0.0043918196    61.417198     26251.87 
10025000   -204826.43    1.5936597 0.0053058996    61.480734    26265.292 
10030000   -205093.39    1.6473456 -0.0023005305    61.510292     26278.68 
10035000   -204940.25     1.583525 -0.00039947402    61.505965    26292.139 
10040000   -204949.04    1.5818637 0.0043042962    61.472311    26305.576 
10045000   -205045.12    1.5795057 -0.0051068627    61.577617    26318.983 
10050000   -205029.59    1.5859181 0.0019638138    61.468073    26332.401 
10055000   -204871.54    1.5477145 -0.0045220082    61.626673    26345.826 
10060000   -204891.42    1.5866529 0.0024500495    61.553946    26359.242 
10065000    -204989.7    1.5752818 -0.0052138911    61.563798    26372.656 
10070000   -204980.74    1.5449419 0.00065379099    61.452057    26386.083 
10075000   -204993.64     1.574335 -0.0017640478    61.503181    26399.513 
10080000   -205025.78    1.5805327 -0.0008475097    61.465806    26412.923 
10085000   -204919.71    1.6036356 0.00091810112    61.515952    26426.336 
10090000   -205073.42    1.5679708 -0.0034711041    61.485532    26439.788 
10095000    -204970.6    1.6146506 0.0053852296    61.426191    26453.234 
10100000   -204922.59    1.5874765 0.0048252183    61.405023     26466.67 
10105000   -204835.78    1.5503892 0.0017315906    61.467294    26480.081 
10110000   -204913.45    1.5799944 -0.00075692855    61.477004    26493.521 
10115000   -204904.96    1.6259714 -0.00047087597     61.53293    26506.941 
10120000   -204679.57    1.5947844 -0.0060189234    61.639066    26520.337 
10125000   -204934.49    1.5649843 0.0017408838    61.519154    26533.749 
10130000   -204968.61     1.555257 -0.002330747    61.558336    26547.144 
10135000    -204799.4    1.5957249 -0.00060436572    61.580313    26560.553 
10140000   -204762.33    1.5655905 0.0032054005    61.606998    26574.002 
10145000   -204556.39    1.5727712 -0.00017931354    61.678896    26587.363 
10150000   -204734.15    1.6048609 -0.001749212     61.62327    26600.736 
10155000   -204709.21    1.6016733 -0.0012168337    61.580391     26614.14 
10160000   -204868.09    1.5571599 0.0033801122    61.529545    26627.518 
10165000   -204854.42     1.638817 0.0017199739    61.541207    26640.959 
10170000   -204823.63    1.6142023 -0.0029084056    61.570011    26654.391 
10175000   -204824.32    1.5797905 -0.0025754551    61.572829    26667.794 
10180000   -204812.72    1.5993705 0.0018449854    61.584561     26681.22 
10185000   -205027.49    1.6071431 -0.0016980612    61.532773    26694.646 
10190000   -204923.42    1.5888357 0.0049942512    61.513259    26708.124 
10195000    -204832.9    1.6013731 -0.0043257861    61.570938    26721.582 
10200000   -204778.26    1.6109875 -0.0032109762    61.591777    26735.038 
10205000   -205020.09    1.5686079 0.00096353417    61.487198    26748.467 
10210000   -204982.07    1.6253948 0.0023130702    61.467271    26761.915 
10215000   -204817.03     1.607269 0.0029250027     61.47683    26775.399 
10220000   -204684.34    1.6285041 -0.004258783    61.645638    26788.857 
10225000   -204843.89    1.5645964 0.0026469026    61.492526    26802.278 
10230000   -204784.26    1.5972156 0.0048334114    61.471441    26815.738 
10235000   -204937.09    1.6102338 -0.0039794137    61.598655    26829.202 
10240000   -204994.19    1.5713069 -0.0029544052    61.535269    26842.643 
10245000   -204639.73    1.6104971 -0.0013984346    61.606464    26856.099 
10250000   -204737.08    1.6279099 0.0010296869    61.555337    26869.505 
Loop time of 26869.5 on 8 procs for 10000000 steps with 2304 atoms

Performance: 32155.411 tau/day, 372.169 timesteps/s
94.4% CPU use with 8 MPI tasks x 1 OpenMP threads

MPI task timing breakdown:
Section |  min time  |  avg time  |  max time  |%varavg| %total
---------------------------------------------------------------
Pair    | 5237.8     | 5520       | 6189.9     | 398.2 | 20.54
Bond    | 0.80821    | 1.0569     | 1.2572     |  12.4 |  0.00
Kspace  | 10808      | 10935      | 11053      |  99.3 | 40.69
Neigh   | 629.32     | 633.38     | 646.84     |  20.7 |  2.36
Comm    | 1173.9     | 1186.1     | 1202.1     |  26.1 |  4.41
Output  | 0.854      | 0.88228    | 1.0759     |   7.8 |  0.00
Modify  | 6141.1     | 7860.6     | 8527.7     |1024.6 | 29.25
Other   |            | 733        |            |       |  2.73

Nlocal:        288.000 ave         293 max         285 min
Histogram: 1 1 2 2 0 0 1 0 0 1
Nghost:        7002.88 ave        7031 max        6980 min
Histogram: 1 3 0 0 0 1 1 0 0 2
Neighs:         0.00000 ave           0 max           0 min
Histogram: 8 0 0 0 0 0 0 0 0 0
FullNghs:      291628.0 ave      297045 max      288039 min
Histogram: 2 0 1 2 1 0 1 0 0 1

Total # of neighbors = 2333028
Ave neighs/atom = 1012.5990
Ave special neighs/atom = 0.0000000
Neighbor list builds = 71587
Dangerous builds = 0

## ----- deletion for small NPs and salt ----- ##
#    reset_timestep 0

#    label checking

#    compute     peatom    all   pe/atom
#    variable    exppe    atom    exp(2*c_peatom/${ttemp})
#    compute     aveS    small   reduce ave v_exppe
#    compute     aveCl   anion   reduce ave v_exppe
#    compute     aveNa   cation  reduce ave v_exppe

#    fix AVE all ave/time 5 ${repeat} ${freq} c_aveS c_aveCl file average.dat
#    thermo 10000
#    thermo_style custom step pe c_press lx cpu
#    thermo_modify norm no flush yes
#    fix AVE all ave/time 1 ${repeat} ${freq} c_aveS c_aveCl c_aveNa
#    variable    chempNP equal ${ttemp}*(ln(v_numS/vol)+ln(v_numCl/vol)*25+ln(f_AVE[1])+ln(f_AVE[2])*25)
#    variable    chempS  equal ${ttemp}*(ln(v_numNa/vol)+ln(v_numCl/vol)+ln(f_AVE[2])+ln(f_AVE[3]))
#    timestep 0.0005
#    run ${freq}

#    print "done! ChempNP= ${chempNP}" append potential.dat
Total wall time: 7:48:36
