LAMMPS (27 Oct 2021)
OMP_NUM_THREADS environment is not set. Defaulting to 1 thread. (src/comm.cpp:98)
  using 1 OpenMP thread(s) per MPI task
package gpu 0
package gpu 2 neigh no pair/only on
#Lammps gcmc code for electrolytes

## ----- Simulation times ----- ##
    variable t_nve      equal 50000             #nve/limit
    variable t_deform 	equal 50000            #nvt
    variable t_pressed 	equal 50000            #nvt
    variable t_relaxed 	equal 100000            #nvt
    variable t_eq 	equal 10000000           #nvt

    variable smallc	equal 10
    variable bigc	equal -80
    variable numB	equal 256
    variable numS	equal ${numB}*8
    variable numS	equal 256*8
#    variable numCl	equal ${numS}*${smallc}+${bigc}*${numB}

## ----- Environment setting ----- ##
    boundary p p p
    atom_style full

## ----- System Variables  ----- ##
    variable    ttemp       equal   $b          	#reduced temperature
    variable    ttemp       equal   1.64          	
    variable    ppress      equal   0			#osmetic pressure
    variable    cutoff_pppm equal   27.8	        #cutoff for the real part of pppm
    variable	ipress      equal   0.1

    variable    bigd        equal   10                      #LJ sigmas
    variable    smalld      equal   2
#    variable    Cl_d        equal   0.4
    variable    d_bs        equal   0.5*(${bigd}+${smalld})
    variable    d_bs        equal   0.5*(10+${smalld})
    variable    d_bs        equal   0.5*(10+2)
#    variable    d_sNa       equal   0.5*(v_smalld+v_Na_d)
#    variable    d_sCl       equal   0.5*(v_smalld+v_Cl_d)
#    variable    d_bNa       equal   0.5*(v_bigd+v_Na_d)
#    variable    d_bCl       equal   0.5*(v_bigd+v_Cl_d)
#    variable    d_NaCl      equal   0.5*(v_Na_d+v_Cl_d)

    variable    cut_small   equal   ${smalld}*1.122462	    #cutoffs for LJ
    variable    cut_small   equal   2*1.122462	    
    variable    cut_big     equal   ${bigd}*1.122462
    variable    cut_big     equal   10*1.122462
#    variable    cut_Na_d    equal   ${Na_d}*1.122462
#    variable    cut_Cl_d    equal   ${Cl_d}*1.122462
    variable    cut_bs      equal   ${d_bs}*1.122462
    variable    cut_bs      equal   6*1.122462
#    variable    cut_bNa     equal   ${d_bNa}*1.122462
#    variable    cut_bCl     equal   ${d_bCl}*1.122462
#    variable    cut_sNa     equal   ${d_sNa}*1.122462
#    variable    cut_sCl     equal   ${d_sCl}*1.122462
#    variable    cut_NaCl    equal   ${d_NaCl}*1.122462

## ----- Initialization and grouping ----- ##
    read_data config_fcc8.dat
Reading data file ...
  orthogonal box = (-80.000000 -80.000000 -80.000000) to (80.000000 80.000000 80.000000)
  2 by 2 by 2 MPI processor grid
  reading atoms ...
  2304 atoms
Finding 1-2 1-3 1-4 neighbors ...
  special bond factors lj:    0        0        0       
  special bond factors coul:  0        0        0       
     0 = max # of 1-2 neighbors
     0 = max # of 1-3 neighbors
     0 = max # of 1-4 neighbors
     1 = max # of special neighbors
  special bonds CPU = 0.002 seconds
  read_data CPU = 0.073 seconds

    set type 1 charge   ${bigc}    	#large NPs
    set type 1 charge   -80    	
Setting atom values ...
  256 settings made for charge
    set type 2 charge   ${smallc}       #small NPs
    set type 2 charge   10       
Setting atom values ...
  2048 settings made for charge
#    set type 3 charge   1       #Na+
#    set type 3 charge   -1      #Cl-

    mass    *   0.2
    mass    1   25.0

    group big       type 1
256 atoms in group big
    group small     type 2
2048 atoms in group small
#    group cation    type 3
#    group anion     type 3

## ----- Interaction setting ----- ##
    pair_style lj/cut/coul/long ${cut_big} ${cutoff_pppm} #lj/cut/coul/long/soft 2.0 0.5 5.0 ${cut_small} ${cutoff_pppm}
    pair_style lj/cut/coul/long 11.22462 ${cutoff_pppm} 
    pair_style lj/cut/coul/long 11.22462 27.8 
    #Between regular particles (4*5/2=10)
    pair_coeff  1   1   2.0     ${bigd}     ${cut_big}	        # big-big
    pair_coeff  1   1   2.0     10     ${cut_big}	        
    pair_coeff  1   1   2.0     10     11.22462	        
    pair_coeff  2   2   2.0     ${smalld}   ${cut_small}	    # small-small
    pair_coeff  2   2   2.0     2   ${cut_small}	    
    pair_coeff  2   2   2.0     2   2.244924	    
#    pair_coeff  3   3   2.0     ${Na_d}     ${cut_Na_d}		    # Na-Na
#    pair_coeff  3   3   2.0     ${Cl_d}     ${cut_Cl_d}       	# Cl-Cl
    pair_coeff  1   2   2.0     ${d_bs}     ${cut_bs}	        # big-small
    pair_coeff  1   2   2.0     6     ${cut_bs}	        
    pair_coeff  1   2   2.0     6     6.734772	        
#    pair_coeff  1   3   2.0     ${d_bNa}    ${cut_bNa}	        # big-Na
#    pair_coeff  1   3   2.0     ${d_bCl}    ${cut_bCl}	        # big-Cl
#    pair_coeff  2   3   2.0     ${d_sNa}    ${cut_sNa}       	# small-Na
#    pair_coeff  2   3   2.0     ${d_sCl}    ${cut_sCl}       	# small-Cl
#    pair_coeff  3   4   2.0     ${d_NaCl}   ${cut_NaCl}       	# Na-Cl
#    pair_modify pair lj/cut/coul/long shift yes
    pair_modify shift yes
    kspace_style	pppm	5.0e-4

## ----- Simulation setup ----- ##
    neighbor 1.2 bin
    neigh_modify delay 0 every 1 check yes #one 2000

    compute temp all temp
    compute press all pressure temp

    thermo 5000
    thermo_style custom step pe temp c_press lx cpu
    thermo_modify norm no flush yes

   # dump moldump all custom 50000 ${xyzname} id type q x y z

## ----- Thermalization of system ----- ##
    timestep 0.0002

    fix 1 all nve/limit 0.05
    fix 2 big langevin ${ttemp} ${ttemp} 0.2 1234567
    fix 2 big langevin 1.64 ${ttemp} 0.2 1234567
    fix 2 big langevin 1.64 1.64 0.2 1234567
    fix 3 small langevin ${ttemp} ${ttemp} 0.008 123456
    fix 3 small langevin 1.64 ${ttemp} 0.008 123456
    fix 3 small langevin 1.64 1.64 0.008 123456

    fix freeze big setforce 0.0 0.0 0.0
    fix zeromom all momentum 1 linear 1 1 1 angular
    run ${t_nve}
    run 50000

CITE-CITE-CITE-CITE-CITE-CITE-CITE-CITE-CITE-CITE-CITE-CITE-CITE

Your simulation uses code contributions which should be cited:

- GPU package (short-range, long-range and three-body potentials):

@Article{Brown11,
 author = {W. M. Brown, P. Wang, S. J. Plimpton, A. N. Tharrington},
 title = {Implementing Molecular Dynamics on Hybrid High Performance Computers - Short Range Forces},
 journal = {Comp.~Phys.~Comm.},
 year =    2011,
 volume =  182,
 pages =   {898--911}
}

@Article{Brown12,
 author = {W. M. Brown, A. Kohlmeyer, S. J. Plimpton, A. N. Tharrington},
 title = {Implementing Molecular Dynamics on Hybrid High Performance Computers - Particle-Particle Particle-Mesh},
 journal = {Comp.~Phys.~Comm.},
 year =    2012,
 volume =  183,
 pages =   {449--459}
}

@Article{Brown13,
 author = {W. M. Brown, Y. Masako},
 title = {Implementing Molecular Dynamics on Hybrid High Performance Computers – Three-Body Potentials},
 journal = {Comp.~Phys.~Comm.},
 year =    2013,
 volume =  184,
 pages =   {2785--2793}
}

@Article{Trung15,
 author = {T. D. Nguyen, S. J. Plimpton},
 title = {Accelerating dissipative particle dynamics simulations for soft matter systems},
 journal = {Comput.~Mater.~Sci.},
 year =    2015,
 volume =  100,
 pages =   {173--180}
}

@Article{Trung17,
 author = {T. D. Nguyen},
 title = {GPU-accelerated Tersoff potentials for massively parallel Molecular Dynamics simulations},
 journal = {Comp.~Phys.~Comm.},
 year =    2017,
 volume =  212,
 pages =   {113--122}
}

@Article{Nikolskiy19,
 author = {V. Nikolskiy, V. Stegailov},
 title = {GPU acceleration of four-site water models in LAMMPS},
 journal = {Proceeding of the International Conference on Parallel Computing (ParCo 2019), Prague, Czech Republic},
 year =    2019
}

CITE-CITE-CITE-CITE-CITE-CITE-CITE-CITE-CITE-CITE-CITE-CITE-CITE

PPPM initialization ...
  using 12-bit tables for long-range coulomb (src/kspace.cpp:340)
  G vector (1/distance) = 0.11438956
  grid = 60 60 60
  stencil order = 5
  estimated absolute RMS force accuracy = 0.00041211524
  estimated relative force accuracy = 0.00041211524
  using double precision KISS FFT
  3d grid and FFT values/proc = 42875 28800
  generated 0 of 1 mixed pair_coeff terms from geometric mixing rule
Neighbor list info ...
  update every 1 steps, delay 0 steps, check yes
  max neighbors/atom: 2000, page size: 100000
  master list distance cutoff = 29
  ghost atom cutoff = 29
  binsize = 14.5, bins = 12 12 12
  1 neighbor lists, perpetual/occasional/extra = 1 0 0
  (1) pair lj/cut/coul/long/gpu, perpetual
      attributes: full, newton off
      pair build: full/bin
      stencil: full/bin/3d
      bin: standard
Per MPI rank memory allocation (min/avg/max) = 11.45 | 11.54 | 11.62 Mbytes
Step PotEng Temp c_press Lx CPU 
       0 1.7992005e+08            0    175.78446          160            0 
    5000   -68352.886    1.4658933 -0.0043341307          160    39.410999 
   10000   -73834.755    1.5280015 -0.0043895541          160    78.623644 
   15000   -78370.746    1.4290393 -0.0044453306          160     117.8887 
   20000   -82581.076    1.4997992 -0.0044221065          160    157.06615 
   25000   -86208.483    1.4798674 -0.0043121992          160      196.322 
   30000   -89657.922    1.4666874 -0.0043833476          160    235.50262 
   35000    -92826.49    1.4794329 -0.0043123435          160    274.62383 
   40000   -95731.518    1.4854746 -0.004328177          160    313.79745 
   45000   -98499.595     1.503502 -0.0043437438          160    352.98125 
   50000   -100958.35    1.4378285 -0.0042361044          160    392.15375 
Loop time of 392.154 on 8 procs for 50000 steps with 2304 atoms

Performance: 2203.217 tau/day, 127.501 timesteps/s
99.6% CPU use with 8 MPI tasks x 1 OpenMP threads

MPI task timing breakdown:
Section |  min time  |  avg time  |  max time  |%varavg| %total
---------------------------------------------------------------
Pair    | 8.9283     | 9.3954     | 9.8488     |  13.3 |  2.40
Bond    | 0.0044137  | 0.0088512  | 0.011535   |   2.1 |  0.00
Kspace  | 376.02     | 376.7      | 377.28     |   2.3 | 96.06
Neigh   | 0.057688   | 0.065557   | 0.073672   |   2.1 |  0.02
Comm    | 2.4466     | 2.6919     | 3.0382     |  12.6 |  0.69
Output  | 0.00035638 | 0.0005868  | 0.0021844  |   0.0 |  0.00
Modify  | 2.7495     | 2.7961     | 2.8639     |   2.6 |  0.71
Other   |            | 0.4906     |            |       |  0.13

Nlocal:        288.000 ave         313 max         260 min
Histogram: 2 0 0 1 0 2 1 0 0 2
Nghost:        1337.00 ave        1358 max        1308 min
Histogram: 1 1 0 0 1 1 1 0 0 3
Neighs:         0.00000 ave           0 max           0 min
Histogram: 8 0 0 0 0 0 0 0 0 0
FullNghs:      16564.0 ave       18893 max       14142 min
Histogram: 2 0 0 1 0 3 0 0 0 2

Total # of neighbors = 132512
Ave neighs/atom = 57.513889
Ave special neighs/atom = 0.0000000
Neighbor list builds = 70
Dangerous builds = 0

#    compute     peatom      all     pe/atom
#    variable    exppe       atom    exp(2*c_peatom/${ttemp})
#    compute     aveS        small   reduce ave v_exppe
#    compute     aveCl       anion   reduce ave v_exppe
#    compute     aveNa       cation  reduce ave v_exppe
#    thermo ${every}
#    thermo_style custom step pe temp lx vol c_aveS c_aveCl c_aveNa cpu
#    thermo_modify norm no flush yes
#    variable    chempNP     equal   temp*(ln(2304/vol)+ln(18300/vol)*10+ln(c_aveS)+ln(c_aveCl)*10)
#    variable    chempS      equal   temp*(ln(5500/vol)+ln(18300/vol)+ln(c_aveNa)+ln(c_aveCl))
#    label checking
#    run ${every}
#    if "${chempNP}>${mu_np}" then 'print "ChempNP=${chempNP}; expel"' "jump gcmc.in checking" else 'print "done!"'

    fix deforming all deform 10 x final -33 33 y final -33 33 z final -33 33 remap x
    run ${t_deform}
    run 50000
PPPM initialization ...
  using 12-bit tables for long-range coulomb (src/kspace.cpp:340)
  G vector (1/distance) = 0.11438956
  grid = 60 60 60
  stencil order = 5
  estimated absolute RMS force accuracy = 0.00041211524
  estimated relative force accuracy = 0.00041211524
  using double precision KISS FFT
  3d grid and FFT values/proc = 42875 28800
  generated 0 of 1 mixed pair_coeff terms from geometric mixing rule
Per MPI rank memory allocation (min/avg/max) = 11.45 | 11.54 | 11.62 Mbytes
Step PotEng Temp c_press Lx CPU 
   50000   -100958.35    1.4378285 -0.0042361044          160            0 
   55000   -107573.19    1.5192642 -0.0036849721        150.6    41.986571 
   60000   -114193.74    1.4720163 -0.0038013509        141.2    84.110288 
   65000   -121731.71     1.484804 -0.0040684829        131.8    126.23577 
   70000   -129894.04    1.4692886 -0.0045498892        122.4    168.38859 
   75000   -138203.73    1.4926488 -0.0017513432          113    210.61686 
   80000   -146788.12    1.4270634 0.0021131681        103.6    252.91026 
   85000   -155305.54    1.4438828  0.011343265         94.2    295.26683 
   90000   -163901.48    1.5074765   0.03182406         84.8    337.77558 
   95000   -172122.16     1.459437  0.075447108         75.4    380.52318 
  100000   -181553.22     1.468507   0.17633084           66    423.61402 
Loop time of 423.614 on 8 procs for 50000 steps with 2304 atoms

Performance: 2039.592 tau/day, 118.032 timesteps/s
99.6% CPU use with 8 MPI tasks x 1 OpenMP threads

MPI task timing breakdown:
Section |  min time  |  avg time  |  max time  |%varavg| %total
---------------------------------------------------------------
Pair    | 9.6737     | 10.145     | 10.536     |  11.8 |  2.39
Bond    | 0.0056868  | 0.0092228  | 0.01172    |   1.9 |  0.00
Kspace  | 376.92     | 377.56     | 378.14     |   2.3 | 89.13
Neigh   | 0.77569    | 0.86207    | 0.95726    |   6.4 |  0.20
Comm    | 3.7135     | 4.1196     | 4.4996     |  12.5 |  0.97
Output  | 0.00041371 | 0.0051146  | 0.011916   |   5.7 |  0.00
Modify  | 25.351     | 27.997     | 30.234     |  35.6 |  6.61
Other   |            | 2.912      |            |       |  0.69

Nlocal:        288.000 ave         307 max         267 min
Histogram: 2 0 0 0 0 3 1 0 1 1
Nghost:        5881.25 ave        5908 max        5840 min
Histogram: 1 0 1 0 1 0 2 0 0 3
Neighs:         0.00000 ave           0 max           0 min
Histogram: 8 0 0 0 0 0 0 0 0 0
FullNghs:      235246.0 ave      252755 max      216773 min
Histogram: 1 1 0 0 2 1 1 0 1 1

Total # of neighbors = 1881972
Ave neighs/atom = 816.82812
Ave special neighs/atom = 0.0000000
Neighbor list builds = 331
Dangerous builds = 0

    unfix 1
#    unfix 2
    unfix freeze
    unfix deforming

    timestep 0.002

    fix 1 all   nph	            iso ${ipress} ${ipress} 1.0
    fix 1 all   nph	            iso 0.1 ${ipress} 1.0
    fix 1 all   nph	            iso 0.1 0.1 1.0
    run ${t_pressed}
    run 50000
PPPM initialization ...
  using 12-bit tables for long-range coulomb (src/kspace.cpp:340)
  G vector (1/distance) = 0.1206864
  grid = 32 32 32
  stencil order = 5
  estimated absolute RMS force accuracy = 0.00049681107
  estimated relative force accuracy = 0.00049681107
  using double precision KISS FFT
  3d grid and FFT values/proc = 9261 4096
  generated 0 of 1 mixed pair_coeff terms from geometric mixing rule
Per MPI rank memory allocation (min/avg/max) = 9.331 | 9.334 | 9.337 Mbytes
Step PotEng Temp c_press Lx CPU 
  100000   -181512.96     1.468507   0.17796702           66            0 
  105000   -200550.57    1.6268007  0.094688821     61.81766    14.225412 
  110000   -202463.16    1.6039672  0.097900568    60.703967    28.703536 
  115000    -203601.6    1.6618518   0.09910648    60.305245    43.333397 
  120000   -204221.35     1.622571   0.10073662    60.092057    58.054856 
  125000   -204602.88    1.6521348  0.099547455    59.999259    72.777676 
  130000   -204986.13    1.6588014   0.10333737    59.961925    87.489728 
  135000   -205350.08    1.6172448  0.097860243    59.982237    102.19924 
  140000   -205332.48    1.6250147   0.10423022    59.926671    116.91484 
  145000    -205348.4    1.6666725   0.10337182    59.919742    131.61423 
  150000   -205555.89    1.6266901    0.1099639    59.828013    146.37271 
Loop time of 146.373 on 8 procs for 50000 steps with 2304 atoms

Performance: 59027.340 tau/day, 341.593 timesteps/s
97.5% CPU use with 8 MPI tasks x 1 OpenMP threads

MPI task timing breakdown:
Section |  min time  |  avg time  |  max time  |%varavg| %total
---------------------------------------------------------------
Pair    | 15.378     | 17.624     | 19.215     |  27.9 | 12.04
Bond    | 0.004418   | 0.005549   | 0.0072856  |   1.2 |  0.00
Kspace  | 66.703     | 67.394     | 68.204     |   6.5 | 46.04
Neigh   | 6.2946     | 6.5185     | 6.8463     |   7.7 |  4.45
Comm    | 6.106      | 6.1559     | 6.2226     |   1.5 |  4.21
Output  | 0.00031239 | 0.00052312 | 0.0019839  |   0.0 |  0.00
Modify  | 44.374     | 45.717     | 47.966     |  16.0 | 31.23
Other   |            | 2.957      |            |       |  2.02

Nlocal:        288.000 ave         293 max         281 min
Histogram: 1 0 0 0 1 3 1 0 0 2
Nghost:        7262.00 ave        7284 max        7248 min
Histogram: 1 1 2 1 0 1 1 0 0 1
Neighs:         0.00000 ave           0 max           0 min
Histogram: 8 0 0 0 0 0 0 0 0 0
FullNghs:      315766.0 ave      321193 max      307418 min
Histogram: 1 0 0 0 1 3 0 1 0 2

Total # of neighbors = 2526126
Ave neighs/atom = 1096.4089
Ave special neighs/atom = 0.0000000
Neighbor list builds = 709
Dangerous builds = 0
    unfix 1
    fix 1 all   nph	            iso ${ipress} ${ppress} 1.0
    fix 1 all   nph	            iso 0.1 ${ppress} 1.0
    fix 1 all   nph	            iso 0.1 0 1.0
    run ${t_relaxed}
    run 100000
PPPM initialization ...
  using 12-bit tables for long-range coulomb (src/kspace.cpp:340)
  G vector (1/distance) = 0.12148093
  grid = 30 30 30
  stencil order = 5
  estimated absolute RMS force accuracy = 0.00049629349
  estimated relative force accuracy = 0.00049629349
  using double precision KISS FFT
  3d grid and FFT values/proc = 8000 3600
  generated 0 of 1 mixed pair_coeff terms from geometric mixing rule
Per MPI rank memory allocation (min/avg/max) = 9.788 | 9.806 | 9.816 Mbytes
Step PotEng Temp c_press Lx CPU 
  150000   -205555.75    1.6266901   0.10996908    59.828013            0 
  155000   -205695.53    1.6209118  0.086321136    60.027548    14.279462 
  160000   -205826.54    1.6483791  0.087704528    59.999187    28.550383 
  165000   -205662.21    1.6187166  0.088243505    60.081904     42.82775 
  170000   -205974.39    1.6428149   0.08189758    60.075912    57.055925 
  175000   -205945.68    1.6310476  0.074797439    60.212563    71.317813 
  180000   -205804.34    1.6343217  0.068190272    60.292352     85.50931 
  185000    -205884.1      1.65821  0.068081621    60.337442    99.742291 
  190000   -205705.16    1.6541042  0.055326309    60.446278    113.94034 
  195000   -205987.01    1.6195716  0.049785741    60.496437    128.15373 
  200000   -205777.14    1.6313093  0.047474202    60.563718    142.31965 
  205000   -205828.98    1.6553612   0.04291507    60.614949    156.50315 
  210000   -205858.03     1.642805  0.032275289    60.709085    170.64194 
  215000   -205611.66    1.6231593  0.039268092    60.725347    184.77702 
  220000   -205520.59    1.6542875  0.029710123    60.900148    198.92539 
  225000   -205382.16    1.5916218  0.022964995    61.020975    213.05588 
  230000   -205623.54    1.6414181  0.020818225    60.953849    227.16661 
  235000   -205303.67    1.6314229  0.019553968    61.056466    241.29335 
  240000    -205184.1    1.6622829 0.0093015207    61.261917    255.41064 
  245000   -205185.31    1.6170346 0.0011559447    61.356159    269.50936 
  250000   -205070.97    1.6074715 0.0073066831     61.33667    283.55218 
Loop time of 283.552 on 8 procs for 100000 steps with 2304 atoms

Performance: 60941.133 tau/day, 352.669 timesteps/s
94.5% CPU use with 8 MPI tasks x 1 OpenMP threads

MPI task timing breakdown:
Section |  min time  |  avg time  |  max time  |%varavg| %total
---------------------------------------------------------------
Pair    | 54.417     | 58.545     | 61.29      |  31.9 | 20.65
Bond    | 0.0089751  | 0.011469   | 0.014143   |   1.7 |  0.00
Kspace  | 108.91     | 110.36     | 111.8      |  10.3 | 38.92
Neigh   | 12.922     | 13.205     | 13.857     |   9.5 |  4.66
Comm    | 12.286     | 12.38      | 12.486     |   1.7 |  4.37
Output  | 0.00063181 | 0.00097134 | 0.0033264  |   0.0 |  0.00
Modify  | 65.082     | 79.273     | 85.473     |  91.5 | 27.96
Other   |            | 9.775      |            |       |  3.45

Nlocal:        288.000 ave         292 max         281 min
Histogram: 1 0 0 0 1 1 1 1 1 2
Nghost:        7077.12 ave        7098 max        7053 min
Histogram: 1 1 1 0 1 0 0 0 3 1
Neighs:         0.00000 ave           0 max           0 min
Histogram: 8 0 0 0 0 0 0 0 0 0
FullNghs:      293924.0 ave      298024 max      285999 min
Histogram: 1 0 0 0 1 1 1 1 1 2

Total # of neighbors = 2351396
Ave neighs/atom = 1020.5712
Ave special neighs/atom = 0.0000000
Neighbor list builds = 1434
Dangerous builds = 0
    unfix 1

    timestep 0.001
    dump moldump all custom 10000 ${xyzname} id type q x y z
    dump moldump all custom 10000 r8f0_coulombic_1.64.lammpstrj id type q x y z
    fix 1 all   nph                 iso ${ppress} ${ppress} 1.0
    fix 1 all   nph                 iso 0 ${ppress} 1.0
    fix 1 all   nph                 iso 0 0 1.0
    run ${t_eq}
    run 10000000
PPPM initialization ...
  using 12-bit tables for long-range coulomb (src/kspace.cpp:340)
  G vector (1/distance) = 0.12089547
  grid = 30 30 30
  stencil order = 5
  estimated absolute RMS force accuracy = 0.00053348526
  estimated relative force accuracy = 0.00053348526
  using double precision KISS FFT
  3d grid and FFT values/proc = 8000 3600
  generated 0 of 1 mixed pair_coeff terms from geometric mixing rule
Per MPI rank memory allocation (min/avg/max) = 11.05 | 11.07 | 11.08 Mbytes
Step PotEng Temp c_press Lx CPU 
  250000   -205071.03    1.6074715  0.007304311     61.33667            0 
  255000   -204938.45    1.6445412 -0.0017528278    61.444809    13.626092 
  260000   -205029.42    1.5823277 -0.0060747826    61.535981    27.244828 
  265000   -205121.84    1.5926706 -0.0010220347    61.435367    40.848774 
  270000   -204983.24    1.6564113 -0.00058061707    61.496191    54.456648 
  275000   -204986.33      1.66763 -3.6118011e-06    61.497827    68.093958 
  280000   -204884.28    1.6392608  6.49831e-05    61.519799    81.711538 
  285000   -204657.66    1.6476754 -0.00037135692    61.548078    95.345485 
  290000   -204985.28    1.6457239 0.0020942686    61.445112    108.97069 
  295000   -205012.54    1.6146317 -0.0029046565    61.517625    122.56245 
  300000    -204709.6    1.6249359 0.0038289156    61.529639    136.15224 
  305000   -204688.42    1.6708286 -0.0035391209    61.677981    149.76341 
  310000   -204802.34    1.6822753 0.0064639176    61.495558     163.3532 
  315000   -204786.96    1.6849907 -0.0085845532    61.661718    176.93699 
  320000   -204607.73     1.655847 0.0042024885    61.551305    190.54399 
  325000   -204614.53    1.6343351 0.00022982981    61.599182    204.14398 
  330000   -204691.43    1.6521916 -0.0018869223    61.623602     217.7417 
  335000   -204536.81    1.6235931 2.1599774e-06    61.581361    231.31317 
  340000   -204661.79    1.6322093 0.0065995049     61.50081    244.90285 
  345000   -204621.88    1.6447897 -0.0045065173    61.697049     258.5226 
  350000    -204423.6    1.6667304 -0.0070080587    61.761193    272.08771 
  355000   -204433.11    1.6556221 0.0031699212    61.567958    285.65628 
  360000   -204392.53    1.6730619 -0.00057522825    61.667395    299.24745 
  365000    -204710.4    1.6170522 0.0020204539    61.582911    312.82332 
  370000   -204694.74    1.5821916 0.0046163012    61.588925    326.39382 
  375000   -204463.57    1.6962893   0.00366707    61.699963    339.94887 
  380000    -204347.2    1.6073693 -0.0030531663    61.732442    353.50579 
  385000   -204557.82    1.6423625 -0.0043720917    61.732859    367.06424 
  390000   -204308.61    1.6629072 0.0040175214    61.607593    380.66152 
  395000   -204459.04    1.6544696 -0.0047571676    61.728923    394.22976 
  400000   -204444.66    1.6015444  0.001908919    61.642703    407.80566 
  405000   -204406.23    1.6168816 9.0993435e-06    61.662767    421.36146 
  410000   -204275.48    1.6423082 0.0014526635    61.669179    434.92124 
  415000   -204317.02    1.6469555 0.0018839616    61.714791    448.51025 
  420000   -204355.73    1.6779568 -0.00053181663    61.744409    462.07975 
  425000   -204257.61    1.6001396 0.00095763613    61.736917    475.64364 
  430000   -204550.12    1.6197333 0.0001720189    61.659741    489.20217 
  435000   -204374.12    1.6407768 0.0042523488    61.689843    502.76657 
  440000   -204449.42    1.6410068 -0.0045300214    61.777859    516.33502 
  445000   -204351.01    1.6398751 -0.00096967029    61.786596    529.90062 
  450000   -204398.19    1.6282227 -0.00012916409    61.711545    543.43673 
  455000   -204529.77     1.621882 0.0034090116    61.643528    556.97506 
  460000   -204521.26    1.6577126 0.00024028151    61.664049     570.5669 
  465000   -204514.86    1.6683382 -0.001027238    61.665015    584.17257 
  470000   -204536.36    1.6181657 -0.00044181822     61.63277    597.74545 
  475000   -204462.71     1.641363 -0.0049129637    61.687753    611.31909 
  480000   -204295.51    1.6442862 -0.003840833     61.80714    624.87018 
  485000   -204441.32    1.6427509 -0.0023081327    61.721743    638.42864 
  490000   -204518.18    1.6346121 0.0030685241    61.662705    651.99094 
  495000   -204312.72    1.6561304 -0.003558388    61.770324    665.53474 
  500000   -204470.16    1.6249583 -0.0015600153    61.739237    679.09703 
  505000    -204259.2    1.6269576 0.0012642778    61.689886     692.6038 
  510000   -204349.53    1.6945029 -0.0055065463    61.788393    706.15295 
  515000   -204399.06    1.6198862 -0.0018228941     61.69072    719.72429 
  520000   -204404.34    1.5925773 0.0024255035    61.643792    733.28898 
  525000   -204766.84    1.6778609 -0.0034942376    61.622396    746.84524 
  530000   -204517.01     1.641745 0.0011391989    61.565126    760.44988 
  535000   -204370.88     1.629147 -0.0018505045    61.668407    774.01662 
  540000   -204543.12    1.6398275 0.00016992778    61.668765    787.58489 
  545000   -204463.69    1.6339099 -0.00031732818    61.690584    801.13054 
  550000   -204327.11    1.6301274 -0.0017968638    61.695396    814.69253 
  555000   -204265.91    1.5857201 -0.0029998633    61.768724    828.29004 
  560000   -204240.62    1.6552876 0.0064351684    61.679864    841.84158 
  565000   -204430.63    1.6474049 -0.0049004857    61.742945    855.38143 
  570000   -204372.63    1.6029127 -0.0010481701    61.697634     868.9406 
  575000   -204322.58     1.632247 -0.0036609095    61.787976    882.51333 
  580000   -204431.88    1.6318326 -0.00049079552    61.707857    896.05082 
  585000   -204525.88    1.6340157 -0.0019532474     61.69616    909.60576 
  590000   -204523.63    1.6311782 -0.0041816887    61.676404    923.20855 
  595000   -204482.61    1.6399106 0.0035156581     61.63681    936.81537 
  600000   -204539.77    1.6687588 0.00033928897    61.611313    950.41186 
  605000   -204520.24    1.6131895 6.9740675e-05    61.636836    963.97307 
  610000   -204534.24    1.6625922 -0.0034194138    61.668843      977.569 
  615000   -204672.54    1.5941457 -0.0028748228    61.604911     991.1526 
  620000   -204492.62    1.6778027 3.7489047e-05    61.642259    1004.7476 
  625000   -204377.21    1.6450171 0.0028213964    61.680421    1018.2987 
  630000   -204742.48    1.6458873 0.0010712697    61.596405    1031.8624 
  635000   -204574.94    1.6145094 -0.0044961495    61.660786     1045.404 
  640000   -204703.88    1.6335573 -0.0025270602    61.617379     1058.995 
  645000   -204587.24    1.6528553 0.00065364357    61.659863    1072.5731 
  650000   -204757.65    1.6538356 0.0034015931    61.595213    1086.1781 
  655000   -204538.84    1.6284934 0.0011931823    61.653397    1099.7681 
  660000   -204462.93    1.6229079 0.0081611565    61.624066    1113.3265 
  665000    -204482.2     1.684684 -0.0016857061    61.712203     1126.878 
  670000   -204548.66    1.6546476 -0.002618428    61.741845    1140.4635 
  675000   -204570.97    1.5959556 -0.0025820469    61.724311    1154.0311 
  680000   -204652.24    1.6312336 0.0082226921    61.556714    1167.6043 
  685000   -204509.74    1.6341418 -0.0035508662    61.745205    1181.1891 
  690000   -204372.82      1.62902 -0.00070208864    61.760539    1194.7482 
  695000   -204239.75    1.6922146 -0.0061938971    61.805674    1208.2973 
  700000   -204515.65    1.5636111 0.0025866547    61.606453    1221.8908 
  705000   -204519.16    1.6820238 -0.00014720822    61.634638    1235.4409 
  710000   -204601.61    1.6159541  0.001780505    61.653627    1249.0389 
  715000   -204707.45     1.662998 0.0011690052    61.552015    1262.6176 
  720000   -204613.26    1.5906939 -0.0035548163    61.600699    1276.2255 
  725000   -204651.12    1.6420975 -0.0044501222    61.609203    1289.7998 
  730000   -204657.08    1.6724467 -0.0021567059    61.646202    1303.3768 
  735000   -204685.68    1.5979724 0.0026312654    61.575569    1316.9468 
  740000    -204436.6    1.6268197 0.0043645173    61.592161    1330.5308 
  745000   -204720.11       1.6823 0.00044730064    61.603399    1344.0864 
  750000   -204650.11     1.647128 0.0067872977    61.571249    1357.7062 
  755000   -204556.13    1.6767731 0.00068740793     61.65348    1371.2989 
  760000    -204586.6    1.6356419 0.0057614902    61.554586    1384.8876 
  765000   -204766.37    1.6391175 0.0013929859      61.5852    1398.4811 
  770000   -204494.49    1.6455049 0.0057083451    61.517397    1412.0723 
  775000   -204625.97    1.6810274 0.0056740762    61.513863    1425.6334 
  780000   -204386.45    1.6783324 -0.0036224542    61.656225    1439.2568 
  785000   -204481.52    1.6027062 -0.0046091488    61.650701    1452.8134 
  790000   -204519.35    1.6109498 0.0037676717    61.587225    1466.3716 
  795000   -204348.59    1.6628359 0.0051763047    61.603965    1479.9927 
  800000   -204697.26    1.6498246 -0.0022537826    61.593758    1493.5757 
  805000   -204443.02    1.6191914 -0.0011065723    61.688339    1507.1976 
  810000      -204462    1.6321222 0.00026190968    61.637791    1520.7914 
  815000   -204417.71    1.6224981 -0.0037125877    61.768571    1534.3626 
  820000   -204403.74    1.5912944 3.2380649e-05    61.673754    1547.9282 
  825000   -204554.58     1.636019 -0.0023466642    61.656845    1561.5324 
  830000   -204460.18    1.6671485 0.0035270585    61.585726    1575.1005 
  835000    -204596.3     1.632873 -0.0077725402    61.677499    1588.6989 
  840000   -204698.42    1.6576228 0.0029066691    61.507906    1602.2961 
  845000   -204330.32     1.629483 -0.0051454454     61.70613    1615.9371 
  850000   -204335.58    1.6576572 -0.0030467061    61.757368    1629.5342 
  855000   -204402.23    1.6232712 0.0020493385    61.700703    1643.0946 
  860000   -204502.76     1.644781 0.0039647619    61.621534    1656.6635 
  865000   -204464.59    1.6639408 -0.0030518545    61.712423    1670.2314 
  870000   -204493.02    1.6237865 -0.00030910558    61.641277    1683.7675 
  875000   -204235.07    1.6369483 -0.00042974605     61.73055    1697.3186 
  880000   -204525.15    1.6960446 0.0062006612    61.552043     1710.901 
  885000    -204474.9    1.6143887 -0.0018280877    61.634786    1724.4615 
  890000   -204399.07    1.6698128 0.0019378379    61.583681    1738.0466 
  895000    -204477.5    1.6167507 -0.0020628435    61.684067     1751.592 
  900000   -204403.82    1.6636427 0.0011577036    61.672887     1765.123 
  905000   -204356.01    1.6381779 0.0020385491    61.643532    1778.6992 
  910000   -204535.69    1.6300319 -0.0015369291    61.633458    1792.2589 
  915000   -204424.46    1.6420545 -0.0047789468    61.688313    1805.8262 
  920000   -204482.87    1.6424658 0.00084464676    61.626475    1819.3831 
  925000   -204313.02    1.6306606  0.004606027     61.65785    1832.9372 
  930000   -204345.07    1.5864415 0.00057349169    61.632772    1846.4644 
  935000   -204454.76    1.6279541 -0.0050454041    61.678014    1860.0193 
  940000   -204439.32    1.6563958 0.0039239973    61.609782    1873.5887 
  945000   -204325.84    1.6300894 0.0036536422    61.626012    1887.1926 
  950000   -204496.91    1.6033537 0.0020062328    61.606632    1900.7663 
  955000   -204309.14    1.6672517 0.0028855003    61.683262    1914.3395 
  960000   -204344.93    1.6584954 0.0046980668    61.648043    1927.9094 
  965000   -204506.58     1.649688 -0.0016275578     61.72135    1941.4477 
  970000   -204458.15    1.6994262 0.0052333974    61.619133    1955.0306 
  975000   -204397.93    1.6618455 -0.001327357    61.707685    1968.5863 
  980000   -204541.63     1.628938 0.0022861844    61.615489    1982.1593 
  985000   -204441.89    1.6479389 -0.0019689598    61.648887    1995.7226 
  990000   -204650.55    1.6273084 -0.00079202641    61.593773    2009.3198 
  995000   -204507.59    1.6250174 -0.0040503925    61.688251    2022.8902 
 1000000   -204702.53    1.6247756 -0.0014968361    61.582546    2036.4698 
 1005000   -204445.81    1.6801703 0.00026304738    61.694111     2050.052 
 1010000   -204569.11     1.602561   0.00441538    61.577103     2063.659 
 1015000   -204565.78    1.6318225 0.0046488393     61.53331    2077.2623 
 1020000   -204611.79    1.6306859 -6.6067994e-07    61.585954    2090.9039 
 1025000   -204682.65    1.6406191 -0.0014943058    61.604241    2104.4862 
 1030000   -204655.31    1.6419532 0.00028748815    61.604675    2118.0791 
 1035000   -204634.82     1.647004 0.0041772718    61.587638    2131.6309 
 1040000   -204821.51    1.6156579 -0.0041972537    61.621624    2145.2073 
 1045000   -204708.98    1.6697897 -0.0033209775     61.59427    2158.8017 
 1050000   -204737.13    1.6493375 0.0028713756    61.557336     2172.386 
 1055000   -204559.38    1.6397381 -0.0057516107    61.621397    2185.9697 
 1060000   -204734.26    1.6672625 0.0049628759    61.518915    2199.5734 
 1065000   -204604.24    1.6399731 0.00042215299    61.632364    2213.1723 
 1070000   -204821.14    1.6892416 0.0023484339     61.51745    2226.7622 
 1075000   -204646.92    1.6345821 0.00068453386    61.586301    2240.3198 
 1080000      -204787    1.6874133 0.0024213437    61.516388    2253.9154 
 1085000   -204496.67    1.6226817 -0.0052355195    61.640794    2267.5262 
 1090000   -204597.75    1.6021546 0.0037576446    61.589135    2281.0957 
 1095000   -204475.86    1.6422264 0.0021163814    61.619741    2294.6473 
 1100000   -204582.49    1.6742759 0.0012718267    61.607293    2308.2245 
 1105000   -204697.37    1.6701699 0.0017494353    61.587755     2321.747 
 1110000   -204414.49    1.6827876 5.9375461e-05    61.697258    2335.3322 
 1115000   -204353.86    1.6076245 -0.0038545683    61.770116    2348.8901 
 1120000   -204430.96    1.6309014 0.00074964709    61.723876    2362.4426 
 1125000    -204141.8    1.6106798 -0.006998727    61.851292    2375.9791 
 1130000    -204456.3     1.611116 0.0043444528    61.613672     2389.531 
 1135000   -204512.75    1.6424681 -0.0002454281    61.643853    2403.0866 
 1140000   -204436.69    1.6388715 -0.0065028609    61.742933    2416.6623 
 1145000   -204482.93    1.6454814 -0.0018090294    61.674422    2430.2372 
 1150000   -204526.01    1.6331179 0.0011142748    61.630921    2443.8208 
 1155000    -204434.6    1.6294312 -0.0022763867     61.70673     2457.413 
 1160000   -204421.93    1.6752031 -0.0039550083    61.773917    2470.9603 
 1165000   -204246.28    1.6209241 -0.005642375    61.828115    2484.4921 
 1170000   -204420.15    1.6378012 -0.005710613    61.788947    2498.0413 
 1175000   -204488.44    1.6463472 -0.004710978    61.757112    2511.6026 
 1180000   -204553.79    1.6142381 0.0012293611    61.653162    2525.1364 
 1185000   -204597.04    1.5972421 -0.0053614903    61.737327    2538.6624 
 1190000   -204494.18    1.6994816 0.0039955556    61.661342    2552.2568 
 1195000   -204539.08    1.5823136 -0.0038162672    61.650857    2565.8249 
 1200000   -204607.54    1.6528537 0.0067616449     61.54817    2579.4147 
 1205000   -204766.38    1.6413436 -0.0034562352     61.66302    2593.0009 
 1210000   -204542.15    1.6807925 -0.0023748955     61.62262    2606.5605 
 1215000   -204653.47    1.6112761 -0.0010160973    61.586593    2620.1102 
 1220000   -204607.96    1.6123363 -0.0028556442    61.627054    2633.6651 
 1225000    -204597.5    1.6517328 0.0024782526    61.607957    2647.2408 
 1230000   -204737.82    1.6520757  0.004427864    61.489937    2660.8045 
 1235000   -204827.22    1.6250078 -0.0055911597    61.602397    2674.4354 
 1240000   -204496.69    1.6101654 0.00035626908    61.610388    2688.0416 
 1245000   -204586.26    1.6020918 -0.0015887965    61.631827    2701.6364 
 1250000   -204517.58    1.6664002 0.0022936351    61.610664    2715.2056 
 1255000   -204529.74    1.6659751 -0.003431825    61.709039    2728.7893 
 1260000   -204560.69    1.6241698 0.0028775452    61.633206    2742.3509 
 1265000   -204479.83    1.6097167 0.00057876148    61.720482    2755.9151 
 1270000   -204515.06    1.6166131 -0.0033771269    61.705135     2769.471 
 1275000   -204449.21    1.6341437 -0.0028565221    61.682792    2783.0084 
 1280000   -204307.58    1.7012373 0.0036914091    61.672508    2796.5632 
 1285000   -204535.79    1.6180418 0.0038103859    61.660324    2810.1399 
 1290000   -204269.46     1.619629 -0.0010590589    61.766932    2823.6691 
 1295000   -204444.74    1.6395575 0.0015892415    61.656787    2837.2272 
 1300000   -204593.26    1.6167331 -0.0021756893    61.606204    2850.8141 
 1305000   -204421.25    1.6875223 -0.0036220794    61.673377    2864.3821 
 1310000   -204556.62    1.6596066 0.00054665993    61.646445    2877.9336 
 1315000   -204695.67      1.64273 0.0046197111    61.542328    2891.4972 
 1320000   -204581.97    1.6575489 -0.0012695114    61.625206     2905.068 
 1325000   -204676.21    1.6146268 0.0018530851    61.559163    2918.6298 
 1330000   -204680.55    1.6382777 0.00013204831    61.601062    2932.2041 
 1335000   -204437.03    1.6275781 -0.0032082227    61.709351    2945.7307 
 1340000    -204449.2    1.6404072 0.0031078631    61.661594    2959.3234 
 1345000    -204395.6    1.5890076 -0.0001459672    61.707987    2972.9217 
 1350000   -204213.14    1.6197501  0.005528671    61.683359    2986.4497 
 1355000   -204185.36    1.6116346 -0.0079823834    61.865421    2999.9941 
 1360000   -204348.09    1.6696502 0.0021751617    61.679281    3013.5525 
 1365000   -204488.38    1.6484279  0.001841629    61.611402    3027.0797 
 1370000   -204413.05    1.6413182 0.0030602735     61.62954    3040.6443 
 1375000   -204369.01    1.6322571 0.0037897092    61.602114    3054.2142 
 1380000   -204418.13     1.659145 -0.0021417338    61.700566    3067.7868 
 1385000   -204320.58    1.6120614 -0.005928163     61.73734    3081.3565 
 1390000   -204562.11    1.6340683 -0.0041494122     61.67163    3094.9051 
 1395000   -204249.87    1.6546522 0.00035391015    61.731053    3108.4814 
 1400000   -204275.65    1.6684376 -0.0010240054    61.719805    3122.0589 
 1405000    -204359.3    1.6460021 0.0035265183    61.612802    3135.6437 
 1410000   -204281.24    1.6572733 0.0033132048    61.631955    3149.2496 
 1415000   -204363.91    1.6193274 0.0037894842    61.598319    3162.8103 
 1420000   -204062.84    1.6490748  -0.00356132    61.814259    3176.3964 
 1425000   -204181.15    1.6285998  0.001046062    61.678285    3189.9204 
 1430000   -204085.73    1.6562675 -0.0031996992    61.811927    3203.4507 
 1435000   -204206.67    1.6572249 -0.0005430625    61.737315    3216.9505 
 1440000    -204228.9    1.6200742 -0.0015333164     61.72453    3230.4768 
 1445000   -204248.16    1.6717661 0.0030273936    61.655219    3244.0086 
 1450000   -204304.39    1.6416997  0.003086333    61.674211    3257.5536 
 1455000    -204369.4    1.5772888  0.001454016    61.628309    3271.1098 
 1460000   -204481.78    1.6693445  0.004235331    61.583896    3284.6646 
 1465000   -204481.45     1.674659 0.0028547717    61.643421    3298.2342 
 1470000   -204331.83    1.6765409 0.0015897786    61.696222    3311.8069 
 1475000   -204497.25    1.6142643 -0.00043051877    61.627538    3325.3526 
 1480000   -204449.32    1.6441489 -0.00018450152    61.642922    3338.9043 
 1485000   -204328.36    1.6002441 0.0029631829    61.673951    3352.4403 
 1490000   -204268.24    1.6820618 -0.0063300439    61.842402     3365.985 
 1495000   -204349.97    1.6779355 0.0020645669    61.688043    3379.5114 
 1500000   -204406.14    1.6632338 0.0051691517     61.63143    3393.0662 
 1505000   -204506.32    1.6500289 -0.0029415107    61.705511    3406.6236 
 1510000   -204465.97    1.6484533 0.0012623599    61.621139    3420.2213 
 1515000   -204391.01    1.5670019 -0.0010948544    61.700289    3433.7938 
 1520000   -204681.62    1.6032912 0.0012150825    61.573254    3447.3578 
 1525000   -204516.12    1.6519863  0.002148333    61.649694    3460.9306 
 1530000   -204422.64      1.63808 -0.0013639614    61.685919    3474.5099 
 1535000   -204504.41    1.6283983 0.0036195172    61.638803    3488.0517 
 1540000   -204306.02    1.5678697 -0.0013994522    61.715033    3501.6003 
 1545000   -204312.95    1.6669207 0.0055218265    61.638832    3515.1677 
 1550000   -204359.07    1.6275975 0.0061199953    61.624441    3528.7305 
 1555000    -204343.1    1.6375484 -0.0028741526    61.679397    3542.2937 
 1560000   -204342.84     1.664327 0.0088329369    61.571469    3555.8666 
 1565000   -204437.34     1.688569 -0.0022331635    61.750018    3569.4393 
 1570000   -204349.76    1.6406529  0.003037402    61.595445    3582.9926 
 1575000   -204617.09    1.6420316 0.0048751279    61.558585    3596.5682 
 1580000   -204518.73    1.6577032 -0.007801037    61.684729    3610.1498 
 1585000   -204453.93    1.6232442 -0.00031440732    61.640403    3623.7674 
 1590000   -204290.92    1.6567665 0.0025085759    61.684767    3637.3384 
 1595000   -204389.11    1.6038395 -0.0037416748    61.685055    3650.8908 
 1600000   -204449.71    1.6799158 -0.0055045956    61.725729    3664.4676 
 1605000   -204199.33    1.6497428 -0.001251785    61.747015    3678.0267 
 1610000   -204595.44     1.666692 0.0052707213    61.559628    3691.6408 
 1615000   -204618.94    1.5887731 -0.0002441068    61.626114    3705.2827 
 1620000    -204589.4    1.6631368 -0.0019633201    61.720055    3718.9164 
 1625000   -204485.46    1.6432398 -0.0039786648     61.68804    3732.4942 
 1630000   -204555.44    1.6937743   0.00375106    61.535981    3746.1171 
 1635000   -204529.09    1.6180296 -0.0041490852     61.64807    3759.7505 
 1640000   -204316.56    1.6864481 0.0021684889     61.72037    3773.3331 
 1645000   -204615.41    1.6606637 1.2880343e-05     61.68125    3786.8932 
 1650000   -204560.64    1.6579039 -0.0010653406    61.684352    3800.4854 
 1655000   -204420.15      1.60929 -0.0013028207    61.679374    3814.0603 
 1660000   -204416.18    1.6290092 0.0024750957    61.682121    3827.6885 
 1665000   -204467.86    1.6573193 -0.0011533472    61.695731    3841.2572 
 1670000    -204400.7    1.6395967 -0.0026188899    61.716999    3854.8337 
 1675000   -204540.21    1.6197175 -0.0041135969    61.701175    3868.3786 
 1680000   -204239.04    1.5921623 -0.0071086081    61.805714    3881.9287 
 1685000   -204270.66    1.6662299 -0.0016772636    61.762834    3895.4674 
 1690000   -204479.48     1.679306 -0.0067984397    61.750957    3909.0536 
 1695000   -204519.89    1.5954635 -0.0040708837    61.683487    3922.6248 
 1700000   -204478.76    1.6685843 0.0040438202     61.60495    3936.2461 
 1705000   -204513.16    1.6473771 0.0018630877    61.633917    3949.8074 
 1710000   -204322.25    1.6670751 0.0016011562    61.669883    3963.3505 
 1715000   -204495.28    1.6530988 -0.0023601587    61.672637    3976.9469 
 1720000   -204524.17    1.6345432 0.0038201338    61.578729    3990.5172 
 1725000   -204455.29    1.6257435 0.0027692188    61.611078    4004.1114 
 1730000   -204606.12    1.6970097 -0.0043161557    61.655723    4017.6511 
 1735000   -204513.98     1.611671 -0.0031505933    61.719629    4031.2128 
 1740000   -204526.33    1.6312434 -0.00048673359     61.68679    4044.7467 
 1745000   -204422.34    1.6922585 0.00080753996     61.67796     4058.338 
 1750000   -204392.53    1.6243068 -0.00091342278    61.735888    4071.9265 
 1755000   -204511.72    1.6262018 -0.0011095554    61.750901    4085.4828 
 1760000   -204418.54    1.6687917 3.415843e-05    61.736466    4099.0016 
 1765000   -204526.97    1.7050663 0.0013853664     61.66643    4112.5671 
 1770000   -204441.11    1.6441812 0.00093131861    61.658355    4126.1444 
 1775000   -204592.97    1.5830505 -0.00095650064     61.64606    4139.7241 
 1780000   -204575.05    1.6669127 0.00026109412    61.651502    4153.3064 
 1785000   -204331.88    1.6771895 -0.0027266035    61.709639    4166.8892 
 1790000   -204397.14     1.680375 -0.0012253162    61.697186    4180.4746 
 1795000   -204609.21    1.6175585  0.003833382    61.574431    4194.0489 
 1800000   -204274.52    1.5844264 -0.0025054312    61.726604    4207.5966 
 1805000   -204477.43    1.6294587 -0.0031636931    61.681429    4221.1635 
 1810000   -204644.78    1.6353614 0.0024454946    61.627832    4234.7452 
 1815000   -204500.91    1.6380912 -0.0023930804    61.670278     4248.343 
 1820000   -204343.22    1.5829127 -0.0033908423     61.71782    4261.9108 
 1825000   -204395.16    1.6005736 -0.0010990856    61.614843     4275.441 
 1830000   -204583.74      1.66644 -0.003059953    61.648487    4289.0031 
 1835000   -204560.56    1.6477204 0.0010871569    61.620134    4302.5695 
 1840000   -204557.74    1.6397907 0.0049717725    61.571249    4316.1629 
 1845000    -204550.5    1.6026243 3.2459204e-05    61.622336    4329.7394 
 1850000   -204424.19    1.6327194 -0.00034384338    61.637409    4343.3238 
 1855000   -204543.76    1.6586741 0.0060272326    61.517966    4356.9296 
 1860000   -204540.58    1.6645209 -0.0038833154    61.672602    4370.5575 
 1865000   -204340.46    1.6102963 0.0023292659    61.694176     4384.168 
 1870000   -204533.11    1.5734366 0.0013132825    61.585309    4397.7818 
 1875000   -204560.33    1.6635119 -0.0023094831     61.61942    4411.3863 
 1880000   -204723.92    1.6719773 -0.0044186489    61.578085    4425.0051 
 1885000   -204634.72    1.6397691 -0.00098627871    61.555101    4438.5995 
 1890000   -204479.33    1.6668815  -0.00458148    61.681619    4452.1823 
 1895000   -204535.77    1.6254978 0.0013634218    61.606919    4465.7581 
 1900000   -204692.29     1.653771 -0.00040708928    61.640729    4479.3328 
 1905000   -204490.62    1.6447034 0.0034462443    61.600782    4492.9039 
 1910000    -204702.3    1.5653982 -0.0021425933    61.599372    4506.5012 
 1915000   -204549.77    1.6552063 -0.0046465245    61.653083    4520.1272 
 1920000   -204581.89    1.6539323 -0.001628949    61.682371     4533.733 
 1925000   -204395.18    1.6388413 -0.0036491304    61.753936    4547.3174 
 1930000    -204513.8    1.6390484 0.00055852246    61.596924    4560.8703 
 1935000   -204297.87    1.6350023 -0.0059794887    61.768047    4574.4297 
 1940000   -204347.02    1.6454949 -0.0014382392    61.727122    4588.0009 
 1945000   -204460.96    1.6195626 -0.0098660396    61.802748    4601.5773 
 1950000   -204515.08    1.6532254 -0.004048383    61.639304    4615.1614 
 1955000   -204575.38    1.6194095 0.0005877493    61.629773     4628.716 
 1960000   -204502.46    1.6373172 -0.0010635552    61.648068    4642.2817 
 1965000   -204572.67    1.6614432 -0.0030082897    61.654845    4655.8709 
 1970000   -204649.55    1.6471105 0.0033347278    61.518406    4669.5103 
 1975000   -204563.87       1.6352 0.0019012261    61.582534    4683.1071 
 1980000   -204567.98    1.6215975 -0.0020948979     61.60507     4696.702 
 1985000   -204540.07    1.6936412 -0.0028014137    61.673042    4710.2843 
 1990000   -204488.92    1.6331131 0.00060444153    61.611284    4723.8724 
 1995000   -204708.68    1.6513478 -0.0005579221     61.56777    4737.4438 
 2000000    -204448.3    1.6636842 0.0019794305    61.578484    4751.0432 
 2005000   -204474.38    1.6524785 0.0040826208    61.561557    4764.6523 
 2010000   -204700.78    1.6804082 3.5083385e-05     61.58048    4778.2236 
 2015000   -204524.88    1.6452371 0.0025643339    61.595129    4791.8057 
 2020000   -204598.76    1.6331544 -0.0041103259    61.688878    4805.3874 
 2025000    -204585.4    1.6220297 -0.0013503319    61.631569    4818.9418 
 2030000   -204664.11    1.6425926 -0.0011877101    61.594055    4832.5364 
 2035000    -204591.8    1.6286045 0.0019755041    61.576133    4846.1112 
 2040000   -204756.13     1.690202 0.00084347468    61.582188    4859.6552 
 2045000   -204675.46    1.6541892 -3.5111899e-05    61.559513    4873.2044 
 2050000   -204558.55    1.6909544 -0.004154818    61.640787    4886.8051 
 2055000   -204763.72    1.6514033 0.00027416389    61.466456    4900.4168 
 2060000   -204592.18    1.6240449 0.0033362632    61.563277    4914.0087 
 2065000   -204506.33    1.6684124 0.0041807512    61.531394    4927.5963 
 2070000   -204641.07    1.5984626 -0.0019193284    61.574654    4941.1877 
 2075000    -204688.5    1.6067884 -0.00074204996    61.542159    4954.7598 
 2080000   -204481.43    1.6169839 0.0040159827    61.582212    4968.3776 
 2085000   -204546.08    1.6530501 0.0018011316    61.493596     4982.004 
 2090000   -204544.98    1.6625084 -0.0034870055    61.660513    4995.6475 
 2095000   -204699.29     1.609172 0.0098044545    61.432973    5009.2621 
 2100000   -204764.42      1.60347 -0.004578696    61.596816    5022.8989 
 2105000   -204687.54    1.6675161 0.00055111561    61.522759    5036.5334 
 2110000   -204696.74     1.634661 -0.0025189786    61.591936    5050.1455 
 2115000   -204657.59    1.6538794 -9.5428876e-05    61.594302    5063.7071 
 2120000   -204693.48    1.6415708 -0.0035486722    61.605792    5077.3475 
 2125000   -204385.03    1.6636679 -0.00074935887    61.688121    5090.9063 
 2130000   -204447.29    1.6814451 -0.003025839    61.751345    5104.4656 
 2135000    -204438.6    1.6449874 -0.00028751165    61.704803    5118.0249 
 2140000    -204532.1    1.5860574 0.0011532012    61.610543    5131.5987 
 2145000    -204463.2    1.6109821 -0.0011582082    61.655217    5145.1599 
 2150000   -204456.88    1.6256481 -0.0021358833    61.679019    5158.6738 
 2155000    -204463.4    1.6394902 -0.0033212971    61.669613    5172.2343 
 2160000   -204476.26    1.6688052 -0.0013257151    61.643967    5185.7727 
 2165000   -204367.61    1.6688403 0.00066214027    61.638283    5199.3495 
 2170000   -204446.37     1.640527 -0.0093378108    61.703263    5212.9488 
 2175000   -204539.48    1.6423599 0.0007932029    61.601256    5226.5542 
 2180000   -204552.75    1.7140845 0.0049809974    61.576509    5240.1584 
 2185000   -204489.33    1.5956313 -0.001297758    61.617063    5253.7218 
 2190000   -204413.63    1.6462509 -0.0011961384    61.653801    5267.3322 
 2195000   -204400.49    1.6357837 -0.0019995025    61.687808    5280.8786 
 2200000   -204417.32    1.6245901 0.0010754419    61.683067    5294.4392 
 2205000    -204268.9    1.6569066 -0.0019978875     61.82221    5307.9519 
 2210000   -204478.17     1.664859 0.0020663003    61.631157    5321.5143 
 2215000   -204326.88     1.598031 -0.0030545584    61.731391    5335.0929 
 2220000    -204688.2    1.6563473 0.00022879085    61.595083     5348.642 
 2225000   -204599.79    1.6624329 -0.0020396568    61.588388    5362.1728 
 2230000   -204441.38    1.6137551 -0.0011025741    61.678583    5375.7306 
 2235000   -204399.57    1.6581402 -0.0074818721    61.763753     5389.286 
 2240000   -204583.27    1.6344773 -0.0065641497    61.762531    5402.8809 
 2245000   -204328.09    1.6341225 -0.0015120972    61.773746    5416.4135 
 2250000   -204310.62    1.6431405 0.0032784996    61.725771     5429.967 
 2255000   -204341.65    1.6425499 -0.0062678064    61.837253    5443.5265 
 2260000   -204457.78    1.5844567 -0.00036860609    61.678208    5457.0766 
 2265000   -204428.05    1.6510367 0.0043264351     61.70637    5470.6451 
 2270000   -204216.19    1.6305503 -0.0033489539    61.834042    5484.1998 
 2275000   -204285.73    1.6341419 0.0031977668    61.728409    5497.7343 
 2280000   -204299.29    1.6337553 -0.00061249891    61.759798      5511.28 
 2285000   -204279.66    1.6281254 0.0033433818    61.692757    5524.8549 
 2290000   -204332.73    1.5961639 -0.0029991323    61.671962    5538.4008 
 2295000   -204289.64    1.6376408 -0.0021653117    61.744506    5551.9658 
 2300000    -204285.2    1.6099951 -0.0022005269    61.742818     5565.517 
 2305000   -204497.67     1.638754 -0.0020498396     61.68323    5579.0552 
 2310000   -204474.73    1.6592372 0.0014925366    61.609075    5592.5881 
 2315000   -204412.18    1.6389174 -0.0011573707    61.684783    5606.1393 
 2320000   -204650.69    1.5977138 0.00012832152    61.651995     5619.656 
 2325000   -204454.13     1.679385 -0.00011407378    61.702891    5633.2119 
 2330000   -204443.83     1.656644 0.0045034223    61.698197    5646.7726 
 2335000   -204552.12    1.6440858 -0.00018044375    61.692747     5660.312 
 2340000   -204561.22    1.6502062  0.004060314    61.578983    5673.9035 
 2345000   -204407.15    1.6311906 0.0043535563    61.587871    5687.4998 
 2350000   -204541.48    1.6585345 -0.0014395929     61.67727    5701.0612 
 2355000   -204391.59    1.6623331 0.0030345173     61.66066     5714.666 
 2360000    -204390.5    1.6453885 -0.0036467467    61.760946    5728.1841 
 2365000   -204316.54     1.690342 -0.00010046244    61.777049    5741.7401 
 2370000   -204317.91    1.6986027 -0.0013317536    61.809483    5755.2887 
 2375000   -204357.65    1.6550094 0.0052116807    61.693892    5768.8474 
 2380000   -204415.67    1.6044734 -0.0037630433    61.749652     5782.411 
 2385000   -204352.59    1.6689292 -0.00094136358    61.767771    5795.9776 
 2390000   -204484.88    1.6291794 0.0010222133    61.700976    5809.5452 
 2395000   -204279.09    1.6413506 0.0039784876    61.730536    5823.0986 
 2400000    -204330.6    1.6709929 -0.0025333071    61.787128    5836.6541 
 2405000   -204454.53    1.6383915 0.0027074369    61.716453    5850.2079 
 2410000   -204504.99    1.6470482 -0.0024239973    61.791768    5863.7578 
 2415000    -204334.4     1.653435 0.0025888422    61.663988    5877.2882 
 2420000   -204585.22    1.6370414 -0.0030178771    61.628982    5890.8317 
 2425000   -204461.84    1.6398939 0.0011970999    61.653557    5904.3964 
 2430000   -204435.02    1.6837975 -0.00013876559    61.656263     5917.965 
 2435000   -204496.21     1.633684 0.0012287837    61.641618    5931.5422 
 2440000   -204404.11    1.6370261 -0.0030975961    61.730615    5945.1101 
 2445000   -204351.14     1.656616 -0.0024538035    61.775415    5958.6899 
 2450000    -204300.8     1.714452 0.00052463297     61.70062    5972.2384 
 2455000   -204590.07    1.6433335 0.00027217622    61.588814    5985.8399 
 2460000   -204315.88    1.6012347 -0.0052965273    61.744122    5999.4563 
 2465000   -204359.84    1.6294884 0.0018160027    61.655919    6013.0332 
 2470000   -204270.44    1.6568793 -0.0031341132    61.749377    6026.5942 
 2475000   -204656.11    1.6450008 1.0141741e-05    61.651517    6040.1632 
 2480000   -204422.03    1.6534244 -0.00029792732    61.659511    6053.7172 
 2485000    -204355.7    1.6541005 6.4409216e-05    61.655414    6067.2893 
 2490000   -204177.52    1.5984301 -0.0014421285     61.72826    6080.8485 
 2495000   -204387.75    1.6687889 0.0085409422    61.596531     6094.425 
 2500000   -204419.04    1.6237819 0.0037583053    61.655287    6107.9596 
 2505000   -204274.97    1.6306227 0.0011268996    61.740412    6121.5136 
 2510000   -204251.84    1.6262067 -0.0031094629     61.75203    6135.0933 
 2515000   -204546.24    1.5611223  0.002086917    61.606494    6148.7024 
 2520000   -204525.74    1.6575513 -0.005935998     61.68751    6162.2737 
 2525000   -204367.17    1.6275427  0.005492063    61.608303    6175.8718 
 2530000   -204363.08    1.6729483 -0.0013106696    61.714063    6189.4399 
 2535000   -204166.38    1.6438838 -0.0034407709    61.860224    6203.0172 
 2540000   -204258.04    1.6416947 -7.1239545e-05     61.76778    6216.5114 
 2545000   -204506.92    1.6465492 -0.0053033874    61.749731    6230.0446 
 2550000   -204255.15      1.69681 -0.0034853378    61.761096    6243.6184 
 2555000   -204416.95    1.6241907 -0.0048004169    61.788205     6257.158 
 2560000   -204452.72    1.6476406 -0.0026892803    61.729538    6270.7199 
 2565000   -204295.52    1.6319109 -0.003678224    61.803503    6284.2325 
 2570000   -204418.82    1.6450801  0.000818234    61.648313    6297.8281 
 2575000    -204518.3    1.6479192 0.0027372841    61.627265     6311.403 
 2580000   -204537.08    1.5971898 -0.0016501156    61.703561    6324.9796 
 2585000    -204524.1    1.6401884  0.001944804    61.629256    6338.5868 
 2590000   -204476.42    1.6145209 -0.0034247079    61.724508    6352.1725 
 2595000   -204468.31    1.5876325 -0.00098717395     61.67334     6365.714 
 2600000   -204511.08    1.6123778 -8.7567724e-05     61.62207    6379.2977 
 2605000   -204386.44    1.6336035 -0.0025470994    61.696131    6392.9022 
 2610000   -204381.43    1.6535711 -0.0028784181    61.660154    6406.4474 
 2615000   -204457.12     1.671631   0.00187917    61.635574    6420.0359 
 2620000   -204310.17    1.6411975 0.0025065416    61.634993    6433.6111 
 2625000   -204591.98    1.6457182 -0.0042353451     61.64858    6447.1662 
 2630000   -204539.77    1.6597921 0.0048300831    61.543163    6460.7391 
 2635000   -204444.14     1.621764 -0.0037989766    61.665381    6474.3097 
 2640000   -204454.66    1.6189312 -0.002399505    61.658006    6487.8666 
 2645000   -204517.27    1.6536533 -0.0010127782    61.630812    6501.4186 
 2650000   -204664.43    1.6364685 -0.0011446771    61.566498    6515.0057 
 2655000    -204756.2    1.6110409 -0.0025178144    61.596427     6528.572 
 2660000   -204564.23    1.6754918 0.00098191578    61.588482    6542.1523 
 2665000   -204554.05    1.6017068 0.00028006965    61.618562    6555.6799 
 2670000   -204422.93    1.6304267 0.0045422292    61.634037     6569.238 
 2675000   -204232.17    1.6415549 -0.0033688117    61.791723    6582.8325 
 2680000   -204303.97    1.6294391 0.0023300609    61.655045     6596.355 
 2685000   -204351.21    1.6262588 -0.0040643453     61.72127    6609.9417 
 2690000   -204390.49    1.6588997 -0.0030586249    61.661125    6623.5099 
 2695000   -204240.82    1.6310797  0.002803306    61.713217    6637.0561 
 2700000   -204332.28    1.6172041 -0.0050495737    61.793727    6650.6531 
 2705000   -204291.93    1.6839277 0.0037723154    61.693165    6664.1798 
 2710000   -204472.95    1.6149735 -0.00097314077    61.668291    6677.7461 
 2715000   -204253.59    1.6162733 0.00049589069    61.717312    6691.3026 
 2720000   -204409.89    1.6907729 0.0038746429    61.680914    6704.8395 
 2725000   -204250.23     1.637718 0.0024429742    61.742125    6718.3816 
 2730000   -204183.42     1.622486 -0.006539249     61.77883    6731.9391 
 2735000   -204455.17    1.6430296 2.0876018e-05    61.673865    6745.5424 
 2740000   -204447.11      1.62897 0.0029489742    61.631956    6759.0942 
 2745000   -204547.78    1.6940158 -0.0019890745    61.606895    6772.7028 
 2750000   -204447.45    1.6501633 0.0013005991    61.669111    6786.2852 
 2755000   -204502.37    1.6460011 0.00073729501    61.693379    6799.8742 
 2760000   -204496.36    1.5985069 0.0043125864    61.585298    6813.4897 
 2765000   -204447.27    1.6495425 0.0011102983    61.612045    6827.0763 
 2770000   -204570.53    1.6670534 -0.0017564019    61.695983    6840.6274 
 2775000   -204304.44    1.6294289 -0.0011574089    61.758373    6854.1964 
 2780000   -204187.31    1.6636096 -0.0033240159    61.847209    6867.7272 
 2785000   -204285.78    1.6609143 -0.00044240392    61.834852    6881.2411 
 2790000   -204204.58     1.646533 -0.0026185705    61.792298    6894.7524 
 2795000   -204446.59    1.5905191  0.005381911    61.657609     6908.289 
 2800000   -204339.84    1.6324115 0.0040514671    61.623275    6921.8465 
 2805000   -204368.22    1.6393932 0.0058410526    61.605226    6935.3976 
 2810000   -204516.57    1.6772304 0.00053192595    61.653896    6948.9732 
 2815000   -204573.65    1.6089541 0.0046448296    61.585238      6962.55 
 2820000   -204447.65     1.633436 -0.00038913468     61.66875    6976.1289 
 2825000   -204479.47    1.6309029 -0.0040476195    61.655614    6989.7088 
 2830000   -204603.82    1.6424339 0.0024751238    61.575548    7003.2765 
 2835000   -204652.96    1.6802779  0.005275538    61.546282    7016.8641 
 2840000   -204786.04    1.6731653 -0.0015022529    61.564543    7030.4456 
 2845000   -204506.34    1.6283513 -2.9656341e-05    61.672153    7044.0395 
 2850000    -204527.8     1.623605 -0.005859161    61.663563    7057.6184 
 2855000   -204475.99    1.5910405 0.0068297636    61.540732    7071.2311 
 2860000   -204621.49      1.64603 0.0053020973    61.547349    7084.8195 
 2865000    -204615.6    1.6474454 -0.005235339    61.631981    7098.4413 
 2870000   -204520.23    1.6686385 0.0014728706    61.575258    7112.0154 
 2875000   -204439.48      1.62225 -0.00097831186     61.67167    7125.5732 
 2880000   -204666.46    1.6239077 -0.0013051469    61.621796    7139.1204 
 2885000   -204291.42    1.6418863 -0.0051398145    61.769772    7152.6953 
 2890000   -204355.38    1.6692141 -0.00084171447    61.706916    7166.2389 
 2895000   -204634.24    1.6493838 -0.00024186755    61.550691    7179.8207 
 2900000   -204786.22    1.6393758 0.0022281923    61.515977    7193.4122 
 2905000   -204553.13    1.5974169 0.0012808898    61.554788    7206.9953 
 2910000   -204382.94    1.6054252 0.00031258606    61.629725    7220.5756 
 2915000   -204607.98    1.6113235 -0.0038365044    61.624605     7234.178 
 2920000   -204484.33    1.6364333 0.0024579092    61.591643    7247.7847 
 2925000    -204558.2    1.6815981    0.0017042    61.600186      7261.37 
 2930000   -204720.34    1.6545395 0.0031046565    61.490634    7274.9722 
 2935000   -204471.55    1.5938448 -0.0016440615    61.598852    7288.5587 
 2940000   -204639.38    1.6451444 -0.0042224017    61.609648    7302.1486 
 2945000   -204523.81    1.6464717 0.0025177293    61.530363    7315.7318 
 2950000    -204540.1    1.6588524 -0.00015474236    61.593773    7329.3482 
 2955000   -204563.81     1.622059 4.6084905e-05    61.652146    7342.9579 
 2960000   -204420.09    1.6387905 -9.8316314e-05    61.638267    7356.5405 
 2965000   -204454.86    1.6218498 -0.0086992792     61.76065    7370.1196 
 2970000   -204506.71    1.6626564 0.00057270436    61.655494    7383.7629 
 2975000   -204559.56    1.6372686 0.0015513215    61.605526     7397.386 
 2980000   -204666.79    1.6431818 -0.0016082304    61.587521    7410.9836 
 2985000   -204581.41     1.619743 0.0018338772    61.587732    7424.6108 
 2990000   -204811.12    1.6736323 -0.00013871882    61.515438    7438.2654 
 2995000   -204495.86    1.6241551 0.0033815082    61.612141    7451.8787 
 3000000   -204668.11    1.6486546 -0.0034548388    61.642204    7465.4936 
 3005000   -204576.48    1.6787431 0.0043393604    61.564654    7479.0867 
 3010000   -204424.56    1.6256602 -0.0026045497    61.598958    7492.6859 
 3015000   -204672.02    1.6337784 0.0074132014    61.474139    7506.2903 
 3020000    -204443.3    1.6429813 0.0024587705    61.643313    7519.9203 
 3025000   -204316.32    1.6677902 0.0044783278    61.655325    7533.5092 
 3030000   -204316.96    1.6217214 -0.0070857512    61.813643    7547.0723 
 3035000   -204639.48    1.6589105 -0.00025950709    61.599246     7560.641 
 3040000   -204547.76    1.6595443 0.00014043156    61.666507    7574.2278 
 3045000   -204761.16    1.6323969 -0.0031121879    61.601677    7587.8018 
 3050000   -204433.01    1.6975392 -0.00046313566    61.676017    7601.3837 
 3055000   -204621.92    1.6390696 0.00070822994    61.546849    7614.9615 
 3060000   -204474.56    1.6987501 0.0034265115    61.633149    7628.5166 
 3065000   -204415.13    1.6214512 -0.0057923975    61.726678    7642.1153 
 3070000   -204354.17    1.6215957 -0.0038441894    61.693134     7655.683 
 3075000   -204537.97    1.6050053 0.0017961436    61.556077    7669.2566 
 3080000   -204391.12     1.601797 0.0005196701    61.609384    7682.8115 
 3085000   -204659.14    1.6491896 0.0010591483    61.582737    7696.4024 
 3090000   -204428.92    1.6146951 0.0025096607    61.590618     7710.002 
 3095000   -204524.04    1.6221708 -0.0020161294    61.611939    7723.5647 
 3100000   -204515.54    1.7021373 0.0030145766    61.637936    7737.1365 
 3105000    -204694.1     1.645107 0.00081651818    61.599305    7750.7773 
 3110000   -204676.94    1.6748879 0.00077709434    61.587162    7764.3909 
 3115000   -204511.88    1.6246719 0.00066847029     61.65005    7777.9946 
 3120000   -204569.51    1.6299165 -0.0047087625    61.621411    7791.5599 
 3125000    -204813.1    1.6180584 -0.0016080994    61.529525    7805.1514 
 3130000   -204722.88    1.6597748 -0.00094232578    61.589056    7818.7628 
 3135000   -204640.54    1.6656358 -0.0023113085    61.639395    7832.3886 
 3140000    -204582.3    1.6266154 -0.0031271001    61.593349    7845.9837 
 3145000   -204530.58    1.6009254 0.0013764385    61.594407    7859.6356 
 3150000   -204697.88    1.6253624 -6.1673221e-05    61.582853     7873.199 
 3155000   -204553.85    1.6371231 0.0047908201    61.511204    7886.7811 
 3160000   -204629.84    1.6108611 0.0010680544    61.612343    7900.3373 
 3165000   -204452.77    1.5937914 -0.0036789312    61.677708     7913.917 
 3170000   -204515.44    1.6156907 -0.0066081713    61.710581    7927.4774 
 3175000   -204846.59     1.667266 -0.0065467977    61.615636    7941.0602 
 3180000   -204867.67    1.6304371 -0.0003662155    61.511185    7954.6659 
 3185000   -204462.21    1.6767373 0.0012840832    61.620413    7968.2545 
 3190000   -204623.78    1.6724771 0.0064314835    61.545994    7981.8247 
 3195000   -204824.07     1.662897 -0.0056220742    61.602079    7995.4015 
 3200000   -204884.65    1.6280447 0.00054399732    61.511823    8009.0101 
 3205000   -204855.84    1.6350091  0.001151279    61.565557    8022.6182 
 3210000   -204882.86     1.663079 0.0028045143    61.514426    8036.1969 
 3215000   -204608.19    1.6026101 -0.0022541011    61.634238    8049.8151 
 3220000   -204599.72     1.632152 0.00069791277    61.607225    8063.3907 
 3225000   -204573.77      1.66346 -0.0028932522    61.721419    8076.9965 
 3230000   -204611.75    1.6338114 0.0046869682    61.566621    8090.5749 
 3235000   -204621.47    1.6849315 -0.0092837668     61.71731    8104.1824 
 3240000   -204589.31    1.6420841 -0.0078508009    61.654135    8117.7795 
 3245000   -204634.28    1.6678968 -0.0033960888     61.61134    8131.3905 
 3250000   -204746.25    1.6469345 0.0044139615    61.576513    8145.0103 
 3255000   -204635.93    1.6501059 -0.0058080036    61.635581    8158.5754 
 3260000   -204614.12    1.6024047 -0.0031244589    61.687727    8172.1856 
 3265000   -204648.28    1.5985725 0.0027969463    61.537072      8185.76 
 3270000   -204705.83    1.6383345 -0.0031034514    61.595341    8199.3515 
 3275000   -204471.65    1.6181581 0.0034174395    61.607472    8212.9102 
 3280000   -204591.85     1.605999 0.0017807535    61.609955    8226.4584 
 3285000   -204494.96    1.6249193 0.0011104174    61.593597    8240.0135 
 3290000   -204694.72    1.6301248 -0.0030897733    61.616406    8253.5788 
 3295000   -204654.21    1.6664976 0.00095055813    61.570818    8267.1572 
 3300000    -204789.9    1.6820847 0.0017633364    61.496807    8280.7433 
 3305000   -204647.61    1.6142161 -0.0046311437    61.656412    8294.3018 
 3310000   -204775.58    1.6983784 0.0058111477    61.463379    8307.8942 
 3315000   -204732.14    1.6754594 -0.0026039465    61.610479    8321.4502 
 3320000   -204479.22    1.6657207 -0.0060390874    61.691805    8335.0193 
 3325000   -204381.09    1.7038053 0.00062946931    61.688252    8348.5722 
 3330000   -204365.82    1.6589844 0.0084077278     61.60704    8362.1525 
 3335000   -204349.16    1.7038346 -0.00037152646    61.775569    8375.7129 
 3340000   -204372.67    1.6427278 -0.0014005655    61.749389    8389.2538 
 3345000   -204411.17    1.6754476 -0.0033951144    61.713237    8402.8112 
 3350000   -204529.51    1.6151193 -0.0013806243    61.654981    8416.4059 
 3355000   -204539.75    1.6620743 -0.00030335372    61.653203    8429.9612 
 3360000   -204601.41    1.5901477 0.0048446689    61.599193    8443.5661 
 3365000   -204481.12    1.6667946 0.0010322389    61.652498     8457.106 
 3370000   -204575.53    1.6703146 0.0015256224    61.613717    8470.6777 
 3375000   -204445.88    1.6442158 0.0012822236    61.616767     8484.282 
 3380000   -204637.25     1.646142 -0.004012982    61.601936    8497.8541 
 3385000   -204498.26    1.6969126 0.0050521321    61.506089    8511.4541 
 3390000   -204738.73    1.6782215 -0.002637802    61.625002    8525.0501 
 3395000   -204452.92    1.5748155 -0.0061506654    61.733893    8538.5935 
 3400000   -204415.65    1.6512054  0.003959988     61.60095    8552.1756 
 3405000    -204437.2    1.6468117 0.00068908447    61.607478    8565.7793 
 3410000   -204407.01    1.6394429 0.0020346617    61.633215    8579.3598 
 3415000    -204307.3    1.6130515 -1.2444909e-06    61.742756     8592.946 
 3420000   -204338.82    1.5680033 -0.007255672    61.753661    8606.5029 
 3425000   -204406.57    1.6331573 0.0030320039      61.6554     8620.089 
 3430000   -204459.85    1.6068439 0.00019364595     61.61256    8633.6234 
 3435000   -204635.13     1.661109 0.0039615853    61.553887    8647.1979 
 3440000   -204412.58    1.6425498 -0.0053048194    61.686122    8660.7917 
 3445000   -204509.06    1.6180074 -0.0013363042     61.64408     8674.332 
 3450000   -204696.11     1.614493 -0.0018520364    61.602007    8687.9285 
 3455000   -204503.23    1.6237471 -0.0017865844    61.644332    8701.5216 
 3460000    -204726.8    1.6850575 0.0046564779    61.558421    8715.0758 
 3465000   -204670.24    1.6186201 0.0046079917    61.626658    8728.6446 
 3470000   -204336.63    1.6081006 -0.00055210112    61.724798    8742.2224 
 3475000      -204522    1.6832922 0.0035622165    61.639825    8755.7625 
 3480000   -204595.91      1.64631 -0.0079744257    61.744891    8769.3471 
 3485000   -204471.59    1.6947278 -0.0023240324    61.672191    8782.9507 
 3490000   -204508.92    1.6506434 0.0032899236    61.622455     8796.461 
 3495000   -204792.08    1.6557769 -0.0034303823    61.590836    8810.0748 
 3500000   -204796.99    1.7089187 -0.0004769607    61.581588    8823.6786 
 3505000   -204731.11    1.6201885 0.0014453654    61.543893    8837.2681 
 3510000   -204656.96    1.6585277 -0.0040629922    61.644013    8850.8859 
 3515000   -204815.25    1.6287468 0.00092095559    61.524596    8864.4913 
 3520000   -204533.05    1.6714489 -0.0048188628    61.708835    8878.1182 
 3525000   -204758.21    1.6625824 0.00039139582    61.616944    8891.6852 
 3530000   -204851.49    1.6157214 -0.0014196496    61.583998    8905.2651 
 3535000   -204883.95    1.6281654 0.00036128605    61.487728    8918.8804 
 3540000   -204808.26    1.6250786 0.0030305953    61.504253    8932.4849 
 3545000   -204731.75    1.6240877 -0.0055937755    61.586242    8946.1436 
 3550000   -204636.11    1.6668397  0.001684317    61.557186    8959.7518 
 3555000   -204644.22    1.6250164 0.0007329037    61.618772     8973.354 
 3560000   -204589.27    1.6419204 0.0039569052    61.565296    8986.9065 
 3565000   -204630.39    1.6428273 -0.0015283701    61.584499    9000.5336 
 3570000   -204694.19    1.6401831 -0.0088806441    61.663714    9014.0914 
 3575000   -204441.51    1.6489481 -0.0028696964    61.700216    9027.6683 
 3580000   -204657.64    1.6532106 -0.00075109558    61.542572    9041.2481 
 3585000    -204648.7    1.6396648 0.00087900446    61.560557     9054.834 
 3590000   -204472.31    1.6051226 0.00042485472    61.597766    9068.4467 
 3595000    -204571.8    1.6182755 -0.0039834102    61.663862    9082.0461 
 3600000   -204573.52    1.6293542 -0.0016564742     61.56762    9095.6107 
 3605000   -204573.69    1.6640096 0.0048297767    61.507557    9109.1655 
 3610000   -204337.44    1.6202181 0.0026946171    61.648155    9122.7436 
 3615000   -204324.74    1.6246698 -0.0023897879    61.670868    9136.3029 
 3620000   -204590.88    1.6210663  0.006289917    61.527226     9149.912 
 3625000   -204497.14    1.6546767 -0.0013911988    61.629055    9163.4784 
 3630000   -204638.35    1.6405457  0.001008567    61.609739    9177.0595 
 3635000   -204607.39    1.6426019 -0.0032060456    61.643883    9190.6078 
 3640000   -204468.74    1.6385186 0.0024484139    61.603941    9204.1963 
 3645000   -204695.98    1.5933625 -0.0013618517    61.634301    9217.7823 
 3650000   -204789.82    1.6131856 0.0039040851    61.481793    9231.4117 
 3655000    -204854.5     1.654151 0.0075429938    61.476747    9244.9737 
 3660000   -204679.35    1.6133286 0.0051728466    61.498029    9258.5638 
 3665000   -204558.91    1.6102404 -0.0079230483    61.736755    9272.1462 
 3670000   -204541.41    1.6523673 -0.0016131114    61.646237    9285.7183 
 3675000   -204598.11    1.6634124 1.2647665e-05    61.572531    9299.2634 
 3680000   -204657.61    1.5806474 -0.0031614464    61.632509    9312.8766 
 3685000   -204786.96    1.6601276 0.0011904298    61.550948    9326.4525 
 3690000   -204571.73    1.6732927 -0.00060268054    61.651555    9340.0662 
 3695000   -204575.98     1.604827 -0.0031417309     61.67688    9353.6302 
 3700000   -204720.06    1.6143254 -0.0049711912    61.635114    9367.2512 
 3705000   -204542.49     1.588357 -0.0001222031    61.566683    9380.8668 
 3710000   -204566.15    1.6150942 -0.0027843137      61.6564    9394.4815 
 3715000   -204645.62    1.6259339  0.004489493    61.555919    9408.0587 
 3720000   -204549.05    1.5975533 -0.0068443342    61.710991    9421.6712 
 3725000   -204542.14    1.6602237 0.0024390814    61.633354     9435.253 
 3730000   -204561.18    1.6729683 -0.0014062368    61.633086    9448.8072 
 3735000   -204666.48     1.650136 -0.0083540196    61.730852    9462.3688 
 3740000   -204707.55    1.6332912 0.0068009596    61.512495    9475.9868 
 3745000   -204739.48    1.6341727 0.0091414567    61.485785    9489.6094 
 3750000   -204580.56    1.6400137 -0.00065184964    61.635532    9503.2189 
 3755000   -204630.24    1.6546501 0.0023367168    61.601316    9516.7799 
 3760000   -204678.72    1.6677026  0.002315476    61.564766    9530.4001 
 3765000   -204680.99     1.618326 -0.0025136892    61.606505    9544.0036 
 3770000   -204789.67    1.6670147 0.0063526767    61.484415    9557.5877 
 3775000   -204763.97    1.6604569 0.0064690794    61.487818    9571.2081 
 3780000   -204561.98    1.6203867  0.003216747     61.53149    9584.8053 
 3785000   -204687.28    1.6606368 0.0021162628    61.528938    9598.4296 
 3790000   -204650.18     1.667532 -0.0017545234      61.6127    9612.0388 
 3795000   -204598.39    1.6711084 -0.00072076999    61.654449     9625.601 
 3800000   -204720.67    1.6824471 -0.0030931293    61.609621    9639.2058 
 3805000   -204817.42    1.6528803 -0.002970361    61.558206    9652.8563 
 3810000   -204676.15    1.6167667 -0.0029743528    61.606599    9666.4535 
 3815000   -204776.31    1.6440028 0.00062894327    61.534672    9680.0784 
 3820000   -204710.23    1.6140022 0.0004613103    61.513688    9693.6619 
 3825000   -204466.15    1.6497065 0.00035235187    61.582174    9707.2576 
 3830000   -204581.34    1.7068571 -0.0016219688    61.604362    9720.8695 
 3835000   -204417.49     1.625866 -0.0026414659    61.727808    9734.4752 
 3840000   -204568.23    1.6419149 -0.0036274706    61.694217    9748.0562 
 3845000   -204408.11    1.6385659 0.0066472529    61.586166    9761.6689 
 3850000   -204394.19     1.633981 0.0049752073     61.61079    9775.2463 
 3855000   -204411.79    1.6185793 -0.00028062413    61.655243     9788.817 
 3860000   -204414.06    1.6504041 0.0009264304    61.669235    9802.3924 
 3865000   -204421.02    1.6267923 -0.0061169224    61.730584     9815.974 
 3870000   -204448.16    1.6168848 -0.00024255547    61.687083     9829.535 
 3875000   -204503.92    1.6379862 0.0032586825    61.626638     9843.093 
 3880000   -204334.36    1.6497095 -0.0026558593    61.729332     9856.683 
 3885000   -204367.71    1.6344794  -0.00265982    61.699145    9870.2319 
 3890000   -204494.14    1.6476132 0.0047281684    61.608654    9883.8106 
 3895000   -204316.24    1.6215539 -0.011328862    61.828107    9897.3844 
 3900000   -204450.66    1.5936358 -0.001379331    61.692349    9910.9598 
 3905000   -204452.74    1.5805954 0.0038423072    61.628789    9924.5255 
 3910000   -204561.27    1.6135867 5.9859163e-05    61.652098     9938.103 
 3915000   -204690.32    1.6425794 -0.0047440024    61.654973    9951.6779 
 3920000   -204537.29    1.6042633 0.0058281995    61.547624    9965.2556 
 3925000   -204522.03    1.6309163 0.0020227172    61.546961    9978.8644 
 3930000   -204527.98    1.6744107 -0.0046644874     61.67905    9992.4669 
 3935000   -204435.56    1.6257199 -0.00064716402    61.718526    10006.036 
 3940000   -204302.96    1.6294313 -0.0011110395    61.673837    10019.619 
 3945000   -204291.83    1.6281817 -0.0034353006    61.675381    10033.218 
 3950000   -204510.33    1.6252602 0.0011957593    61.638666    10046.791 
 3955000   -204393.43    1.6444855 0.0061948916    61.567767     10060.35 
 3960000   -204449.24    1.6473366 -0.0023182787    61.634789    10073.919 
 3965000   -204336.98    1.6710786 -0.0051444486    61.761313    10087.508 
 3970000   -204299.78     1.617406 -0.0028395078    61.751099     10101.07 
 3975000      -204087    1.6697352 -0.00060684487    61.791909    10114.603 
 3980000   -204061.43    1.6066864 -0.00087484078    61.696819    10128.124 
 3985000   -204347.75    1.6454711 -0.0004155524    61.636164    10141.682 
 3990000   -204423.98    1.6202655 0.00018684207    61.694462    10155.258 
 3995000   -204395.05    1.6310047 -0.0044911169    61.718022    10168.824 
 4000000   -204362.84    1.6414594 -0.0012016117    61.714724    10182.393 
 4005000   -204422.73    1.6410897 0.00055159597    61.672286    10195.951 
 4010000   -204177.14     1.618746 -0.0041699697    61.796732    10209.504 
 4015000   -204495.67    1.6671488 0.00096837997    61.677482    10223.054 
 4020000   -204297.88    1.5853824 0.0013438708    61.742788    10236.582 
 4025000   -204380.07    1.6535436 -0.0055169187    61.859068    10250.099 
 4030000   -204323.55    1.6536699 0.0026557141    61.669764    10263.621 
 4035000   -204512.32    1.6490169 0.0019206768    61.653238    10277.201 
 4040000    -204445.5    1.6538675 -0.0045854564    61.726453    10290.805 
 4045000    -204591.1    1.6150796 0.0037993803     61.60392    10304.347 
 4050000   -204485.28    1.6351857 0.0010929219     61.58896    10317.908 
 4055000   -204355.08    1.6430463   0.00110034    61.665048    10331.503 
 4060000   -204550.29     1.693354 0.0017524887    61.604973    10345.051 
 4065000   -204304.35    1.6216535 -0.0030406727    61.739109    10358.606 
 4070000   -204334.83    1.6622756 -0.0071114356    61.814477    10372.157 
 4075000   -204370.52    1.6129541 -0.0050252124    61.779451    10385.691 
[...]
 9085000   -204223.49    1.6394115  0.009655735    61.664892    23988.813 
 9090000   -204345.42    1.6285932 -0.0040047652    61.771427    24002.345 
 9095000   -204400.64    1.6407718 -0.002497922    61.694341    24015.915 
 9100000    -204358.7     1.722683 -0.0067406185     61.78951    24029.477 
 9105000   -204243.29    1.6733389 0.0032382102    61.680539     24043.01 
 9110000   -204280.58    1.6846649 0.0011623237    61.692817    24056.539 
 9115000   -204137.35    1.6386361 0.0052063131     61.67873     24070.11 
 9120000   -204155.34    1.6464649 -0.0076952912    61.877843    24083.642 
 9125000    -204320.2    1.6374433 -0.0012602409    61.746047    24097.192 
 9130000   -204113.19    1.6352573 -0.0015851452    61.865084    24110.739 
 9135000   -204305.16    1.6024238 0.0018295485    61.756044    24124.267 
 9140000   -204277.37    1.6820693 0.0017280328    61.743443    24137.762 
 9145000   -204315.34    1.6146586 0.0022849766    61.730735     24151.31 
 9150000   -204319.38    1.6305621 -0.0074580654    61.754739    24164.877 
 9155000    -204574.4    1.6758073 0.0036138102    61.592886     24178.47 
 9160000    -204307.3    1.6458502 0.0025044279    61.690602    24192.022 
 9165000   -204448.39    1.6271712 -0.0031367947    61.672124    24205.573 
 9170000   -204338.08    1.5883914 0.0025468705    61.668341    24219.169 
 9175000    -204501.8    1.6622472 0.0030308181    61.566877    24232.734 
 9180000   -204435.77    1.6143052 -0.0049549657    61.684031     24246.32 
 9185000   -204314.82    1.6141047 0.0017303106    61.666766    24259.892 
 9190000   -204336.75    1.6342374 0.0014145854     61.68164     24273.46 
 9195000   -204266.47    1.6216082 0.0051405206    61.599948    24287.056 
 9200000    -204396.8    1.6400498 -0.003123355    61.730342    24300.655 
 9205000   -204416.31    1.6920003 -0.0056652899    61.794923    24314.237 
 9210000   -204427.33    1.6102372 -0.00063826438    61.722161    24327.778 
 9215000   -204516.01    1.6236056 0.0015414459    61.685962    24341.333 
 9220000   -204489.51    1.7192469 0.00028897879    61.683768    24354.891 
 9225000   -204534.62    1.6010617 -0.0027897024    61.659496    24368.447 
 9230000   -204355.74     1.638929 0.0015518904    61.628812    24382.018 
 9235000   -204491.34    1.6187688 0.0043842329    61.636093    24395.565 
 9240000    -204214.8    1.6240471 -0.00037362496    61.780659    24409.156 
 9245000   -204266.36    1.6596185 0.0018061895    61.705156    24422.714 
 9250000    -204305.1    1.6004589 -0.0011608348     61.71513    24436.255 
 9255000   -204334.81    1.6532709 0.0007159983    61.673247    24449.851 
 9260000   -204380.68    1.6466525 0.00046973685    61.628232     24463.42 
 9265000   -204396.78    1.6407773 0.0014668393    61.610606    24476.989 
 9270000   -204433.66    1.6521782 0.00036813171    61.627365    24490.576 
 9275000    -204301.6    1.5958157 0.0032576759    61.609664    24504.138 
 9280000   -204444.28    1.6629075 0.00043707488    61.688627    24517.657 
 9285000   -204334.69    1.6240481 0.0021027798    61.686295     24531.19 
 9290000   -204207.17    1.6178766 0.0038526134    61.702086    24544.729 
 9295000   -204427.79    1.6699481 2.8062198e-05     61.69514    24558.292 
 9300000   -204270.26    1.6380799 0.00033811456    61.748262    24571.814 
 9305000   -204539.59    1.6461678 0.0013996775    61.597188    24585.377 
 9310000   -204501.22    1.6470725 -0.0051149283    61.685926    24598.945 
 9315000   -204299.65    1.6026435 -0.0072131325    61.796899    24612.548 
 9320000   -204439.27      1.65461  -0.00256529    61.656746    24626.137 
 9325000   -204240.84    1.6460059 0.0063751907    61.656404    24639.676 
 9330000   -204240.49    1.6362219 -0.0014431282    61.819822    24653.254 
 9335000   -204107.68    1.7111035 0.0072243789    61.647565    24666.805 
 9340000   -204376.73    1.6486291 -0.0024304754    61.706112    24680.385 
 9345000   -204472.65    1.6456682 0.0059294283    61.564078    24693.968 
 9350000   -204397.85     1.628959 0.00031090264    61.667487    24707.526 
 9355000   -204257.74    1.6271888 0.0016370166    61.721341    24721.112 
 9360000   -204311.45    1.6076319 -0.0025330117    61.785113    24734.691 
 9365000   -204186.29    1.6524871 -0.0016389203    61.827159    24748.185 
 9370000   -204362.08    1.6613454 0.0017698408    61.730368    24761.743 
 9375000   -204192.58    1.5954735 -0.0042947151    61.851836    24775.328 
 9380000   -204347.17    1.6977928 0.0034312058    61.640445     24788.88 
 9385000   -204476.73     1.601379 0.0041696499    61.655172    24802.421 
 9390000   -204279.52    1.6531604 0.0013044941    61.780693    24815.944 
 9395000   -204476.82    1.6833068 0.0040909592    61.675959    24829.476 
 9400000   -204182.67     1.697018 -0.0022472434    61.755237    24842.994 
 9405000   -204427.51    1.6685959 -0.007668992    61.776754    24856.549 
 9410000   -204449.33    1.6481204 -0.0031091161    61.754036    24870.111 
 9415000   -204175.91    1.6339173 0.0031161811    61.651278    24883.726 
 9420000   -204387.27    1.6759073 0.0032504969     61.64292    24897.273 
 9425000    -204498.1     1.618638 -0.0033354856    61.654592    24910.862 
 9430000   -204394.34    1.6268688 -0.0055176514    61.726177    24924.464 
 9435000   -204340.14    1.6170728 7.2730406e-05    61.699858    24938.013 
 9440000   -204246.06    1.5974405 0.0024804489    61.707454    24951.549 
 9445000   -204213.04      1.63042 -0.00097042478    61.758366    24965.116 
 9450000   -204507.83    1.6262302 -0.00037929325    61.662444    24978.722 
 9455000   -204545.71     1.629044 -0.00058400229     61.59184    24992.312 
 9460000    -204395.4    1.6384414 -0.0034119848    61.698917    25005.875 
 9465000   -204549.25    1.6068623 -0.00077929826     61.63998    25019.383 
 9470000   -204321.09    1.6970728   0.00622816    61.637557    25032.923 
 9475000   -204299.53    1.6329509 0.00044878269    61.743586    25046.473 
 9480000   -204410.03     1.649074 -0.0050787504    61.736479     25060.02 
 9485000   -204514.09    1.6151909 -0.00026472378    61.618406    25073.577 
 9490000   -204287.31     1.610491 -0.0014435767    61.580744    25087.176 
 9495000   -204466.02    1.5753184 -0.0041629858    61.634589    25100.747 
 9500000   -204407.55    1.6993836 -0.00084008937    61.633423    25114.354 
 9505000   -204395.32    1.6601854 -0.00069545328    61.644044    25127.964 
 9510000   -204505.41    1.6747231 0.00035858115     61.59417     25141.54 
 9515000   -204287.29    1.6019849 0.0058872569    61.603919    25155.124 
 9520000   -204143.56     1.643756 0.00063417255    61.715964    25168.699 
 9525000   -204088.27    1.6041427 -0.0014720031    61.758797    25182.239 
 9530000   -204285.03    1.6385654 0.00082451296    61.722169    25195.732 
 9535000   -204273.76    1.5987373 -0.0016769132     61.76128    25209.266 
 9540000   -204229.76    1.6293406 -0.0018093342     61.74316    25222.879 
 9545000    -204177.9    1.6193969 0.0015412491    61.693386    25236.368 
 9550000   -204182.14    1.5988627 -2.5663528e-05    61.736924     25249.92 
 9555000    -204171.7    1.6643279 0.0040442429    61.742833    25263.456 
 9560000    -204375.8     1.639099 -0.00047140251    61.690521    25276.991 
 9565000   -204449.73    1.6428647  0.005406906     61.65176    25290.535 
 9570000   -204150.13    1.6311261 -0.0046110772    61.852378    25304.083 
 9575000   -204601.19    1.6278663 -0.005629836    61.680395     25317.64 
 9580000   -204503.44    1.6348283 0.0034107152    61.604899    25331.183 
 9585000   -204418.83    1.6196381 -0.0026297475    61.701963    25344.721 
 9590000    -204368.3    1.6612801 0.0027976339    61.651887    25358.247 
 9595000   -204361.36    1.6128365 -0.0037543171    61.752386    25371.762 
 9600000   -204478.66    1.6286878 -0.007387267    61.713836    25385.334 
 9605000   -204456.88     1.647023 0.0035772178    61.666125    25398.917 
 9610000   -204495.58    1.6498579  0.005948953    61.595769    25412.476 
 9615000   -204579.78    1.6563146 -0.00032048334    61.589082    25426.031 
 9620000      -204771     1.591613 0.0048219819    61.497727    25439.658 
 9625000    -204491.6    1.6898459 -0.0013781162    61.635874    25453.255 
 9630000   -204518.16    1.6422694 0.0013143153    61.579886    25466.826 
 9635000   -204353.63    1.6206557 -0.00032641498     61.70976    25480.391 
 9640000   -204130.24    1.6237883 -0.005175034    61.789872    25493.937 
 9645000   -204187.11    1.6194213 0.0020364188     61.75017    25507.479 
 9650000   -204069.66    1.6765858 -0.0027481117    61.820171    25521.021 
 9655000   -204219.25    1.6438468 0.0037196522    61.739654    25534.568 
 9660000   -204317.42    1.6592027 0.0039950375    61.652825    25548.103 
 9665000   -204106.16     1.681166 -0.0016199215    61.757881    25561.654 
 9670000   -204048.03     1.626151 0.0021233236    61.741674    25575.209 
 9675000   -204319.05    1.5781834 0.0020251052    61.691575    25588.755 
 9680000   -204229.02    1.6611225 -0.0026009495    61.702458    25602.324 
 9685000   -204281.96    1.6744301 0.00092624737    61.713377    25615.894 
 9690000   -204481.79    1.6601648 -0.0018068783    61.736503    25629.477 
 9695000   -204343.11    1.7244376 0.0054507562    61.716801    25643.022 
 9700000   -204292.93    1.6472366 -0.0012657476    61.727886    25656.562 
 9705000   -204365.05    1.6465132 0.0017118496    61.732242    25670.106 
 9710000   -204167.22    1.6393107 0.0015993656    61.713657     25683.67 
 9715000    -204275.8     1.583665 -0.0032829581      61.7962     25697.22 
 9720000   -204278.05    1.6346563 0.0046124423    61.618252    25710.789 
 9725000   -204378.25    1.6654604 0.0041726907    61.589361    25724.398 
 9730000   -204470.14     1.643676 -0.0049694704    61.722102    25737.999 
 9735000   -204409.49    1.6222079 0.0062771283    61.529866    25751.597 
 9740000   -204521.19    1.5964102 -0.0028943699    61.645925    25765.171 
 9745000   -204363.66     1.658854 -0.0021312885    61.699222    25778.771 
 9750000   -204475.66    1.6305667 -0.0080659598    61.693335    25792.348 
 9755000   -204585.93    1.6192297 -0.0036845609    61.638587    25805.952 
 9760000   -204464.14     1.663785 0.0055236607    61.628022     25819.55 
 9765000   -204579.84    1.6369597   0.00318509    61.582915    25833.135 
 9770000   -204489.61    1.6227695 -0.0018351688    61.693801     25846.76 
 9775000   -204304.08    1.6904456 -0.00021673445    61.719629    25860.336 
 9780000   -204581.56     1.690775 -0.00069395275    61.632787    25873.892 
 9785000   -204550.34    1.6261387 -0.0016689728    61.698147    25887.465 
 9790000   -204673.89    1.5745688 -2.6419708e-05    61.574816    25901.109 
 9795000   -204701.22    1.6311449 0.0074841747    61.441052    25914.734 
 9800000   -204700.68    1.6766499 -0.00055581392    61.577074    25928.398 
 9805000   -204571.11    1.6649663 -0.0038723039    61.709941    25942.027 
 9810000   -204448.81    1.5913353 0.00034715858    61.690485    25955.635 
 9815000   -204527.72    1.6512472 -0.0028076111     61.68081    25969.247 
 9820000   -204720.03    1.6716958 0.00042315468    61.562203    25982.839 
 9825000    -204356.9    1.5973106 -0.0015797488    61.714539    25996.452 
 9830000   -204545.39    1.6684011 -0.00097372337    61.753166    26010.027 
 9835000   -204648.01    1.6128888 0.0019643064     61.60753    26023.642 
 9840000   -204478.25    1.6195566 0.0011172025    61.651686    26037.213 
 9845000   -204770.95    1.6274798 0.00052322427    61.552867    26050.828 
 9850000    -204658.3    1.6424539 -0.00025032578    61.622744    26064.431 
 9855000   -204620.83    1.6517469 0.00090481727    61.549411    26078.062 
 9860000   -204519.83    1.6342314 -0.0023846651    61.588775    26091.701 
 9865000   -204424.01     1.640268 -0.0044338719    61.688918    26105.316 
 9870000   -204694.34    1.6791474 0.0049788752    61.497979    26118.972 
 9875000   -204737.49    1.6311098 -0.0016812193    61.568728    26132.632 
 9880000      -204804    1.6700373 -0.0026158342    61.545893    26146.244 
 9885000    -204732.1    1.6748359 0.0015632978     61.55925    26159.847 
 9890000    -204532.2    1.6310185 7.2159125e-05    61.567318    26173.457 
 9895000   -204559.49    1.6678243 0.00074087168    61.643688    26187.065 
 9900000   -204462.51    1.6205405 -0.0030338106    61.731955     26200.67 
 9905000    -204423.6    1.6192805 0.00067255949     61.73114    26214.187 
 9910000   -204072.34    1.6159613 -0.004105069    61.941579     26227.74 
 9915000   -204316.15    1.5734641 -0.00031843459    61.732128     26241.28 
 9920000    -204224.1     1.617042 0.0026293826    61.713933    26254.857 
 9925000   -204235.78    1.6833252  0.002845009    61.763048    26268.397 
 9930000   -204359.84    1.6180295 0.0014835577    61.705964    26281.906 
 9935000   -204280.73    1.6360096 0.0021413528    61.764213    26295.434 
 9940000   -204456.18    1.6454109 -0.00082133066    61.642608    26309.007 
 9945000   -204437.81    1.6405332 0.0054763854    61.664813    26322.573 
 9950000   -204528.81    1.6386948 0.00014851246    61.650125    26336.131 
 9955000   -204594.11    1.6048845 -0.0036769196    61.677081    26349.692 
 9960000   -204535.16    1.6664605 -0.00039429218    61.668573     26363.28 
 9965000   -204376.75    1.7111389  0.005867585    61.657589    26376.812 
 9970000   -204489.52    1.6524924 -0.0004452276    61.622202    26390.356 
 9975000   -204534.44    1.6499818 0.0010029258    61.585418      26403.9 
 9980000   -204503.22    1.6187243 0.0017610751    61.609049    26417.459 
 9985000   -204634.28    1.6693512 -0.0030903679    61.554573    26431.027 
 9990000   -204734.67    1.6351298 0.0050595458    61.499004    26444.624 
 9995000   -204562.22    1.6303084 0.00026291665    61.580351    26458.215 
10000000   -204704.08    1.6430145 0.0013927957    61.561576    26471.854 
10005000   -204680.02    1.6679861 -0.0017494079     61.57044    26485.468 
10010000   -204843.05    1.6328067 5.3422546e-05    61.535914    26499.079 
10015000   -204664.45    1.6258281 -0.0025658331    61.642565    26512.694 
10020000   -204886.04    1.6492995 -0.0051770798    61.595838    26526.283 
10025000   -205035.88    1.6708332 0.0052562785    61.463043    26539.923 
10030000   -204649.92     1.673777 -0.0022064081    61.568787    26553.536 
10035000   -204658.53    1.6220615 0.0018349334    61.550432    26567.113 
10040000   -204564.53    1.5862536 0.0034743944    61.569973    26580.738 
10045000   -204718.62    1.6618784 0.0006027476    61.596668    26594.318 
10050000   -204541.29    1.6525894 0.0028643169    61.565081    26607.902 
10055000   -204740.41    1.6403168 -0.00080166761    61.600225    26621.515 
10060000   -204395.74    1.6173468 0.00021061018    61.647524    26635.125 
10065000   -204462.16    1.6885622 -0.0036764862     61.71296    26648.675 
10070000   -204569.23    1.6617798 0.0051850525    61.592683    26662.256 
10075000   -204512.93     1.688677 0.0055869328    61.617018    26675.882 
10080000   -204607.86    1.6057488 -0.0034721523    61.660937    26689.476 
10085000   -204514.16    1.6599322 0.0039521098    61.606861    26703.084 
10090000   -204437.06    1.6296231 -0.0024461794    61.704261    26716.606 
10095000   -204572.48    1.6553043 0.0014405105    61.624218    26730.198 
10100000   -204559.53    1.6168126 0.0032735647    61.602037    26743.755 
10105000   -204489.49    1.6415073 0.00052560598     61.65438    26757.315 
10110000   -204524.59    1.6321968 -0.00036600712    61.643164    26770.887 
10115000   -204554.51    1.6133965 -0.0033396415     61.62176    26784.444 
10120000   -204525.43    1.6243884 -0.0037817531    61.645257    26798.004 
10125000   -204265.23     1.597458 -0.0018246066    61.702394    26811.578 
10130000   -204423.71    1.6307224 0.0031541688    61.633676     26825.11 
10135000   -204455.07     1.666236 0.0039591818    61.635653    26838.695 
10140000   -204423.49    1.6720501 0.0029706001    61.573215    26852.248 
10145000   -204346.16    1.6628846 0.00034458907    61.719155    26865.797 
10150000   -204367.08    1.6274442  -0.00421545    61.771581    26879.354 
10155000   -204379.72    1.6375498 0.0058809136    61.654136    26892.887 
10160000   -204303.15    1.6660014 0.0058276031    61.662097    26906.474 
10165000   -204466.17    1.6262392 -0.00048039644    61.688239    26919.985 
10170000   -204367.89    1.6537104 -2.0529062e-05    61.754221    26933.543 
10175000   -204477.15    1.5714903 0.0021120193    61.685189     26947.11 
10180000   -204328.28    1.6088422 -0.0019822383    61.789744    26960.721 
10185000   -204315.94     1.663307 0.00055595667    61.738757      26974.3 
10190000   -204125.46    1.6619041 -0.0024417068    61.750807    26987.885 
10195000   -204365.78    1.5902309 0.0011057176    61.690181    27001.435 
10200000   -204552.01    1.6425483  0.004524041    61.633092    27015.013 
10205000   -204380.83    1.6416299 -0.0021526576    61.711493    27028.603 
10210000   -204442.45    1.6478872 -0.0015694578    61.688746    27042.151 
10215000   -204522.48    1.6535838 0.0052679626    61.607869     27055.72 
10220000   -204400.98    1.5859631 -0.0029940681    61.693146    27069.292 
10225000   -204305.19    1.6425602 -0.0066409338    61.793102    27082.844 
10230000   -204511.91    1.6182762 0.0036211761    61.663101    27096.403 
10235000   -204463.95    1.6549586 0.0010480241    61.664462     27109.97 
10240000   -204419.26    1.5820536 -0.0015386493    61.675842    27123.546 
10245000   -204481.65    1.6859534 0.0038965802    61.651405    27137.142 
10250000   -204577.53    1.6528354 0.0044698715    61.564654    27150.698 
Loop time of 27150.7 on 8 procs for 10000000 steps with 2304 atoms

Performance: 31822.386 tau/day, 368.315 timesteps/s
94.5% CPU use with 8 MPI tasks x 1 OpenMP threads

MPI task timing breakdown:
Section |  min time  |  avg time  |  max time  |%varavg| %total
---------------------------------------------------------------
Pair    | 5016.7     | 5459.1     | 5695.5     | 292.7 | 20.11
Bond    | 0.90612    | 1.126      | 1.4153     |  16.1 |  0.00
Kspace  | 10869      | 10986      | 11113      | 101.7 | 40.46
Neigh   | 648.11     | 656.95     | 681.53     |  54.2 |  2.42
Comm    | 1164.3     | 1178.6     | 1194.6     |  26.0 |  4.34
Output  | 0.88632    | 0.91787    | 1.1348     |   8.6 |  0.00
Modify  | 6537.1     | 7948.3     | 8660.3     | 912.0 | 29.27
Other   |            | 919.8      |            |       |  3.39

Nlocal:        288.000 ave         294 max         282 min
Histogram: 1 1 0 1 0 3 0 0 1 1
Nghost:        6985.62 ave        7026 max        6946 min
Histogram: 2 0 2 0 0 0 1 0 1 2
Neighs:         0.00000 ave           0 max           0 min
Histogram: 8 0 0 0 0 0 0 0 0 0
FullNghs:      290356.0 ave      297356 max      283093 min
Histogram: 1 0 1 1 0 2 1 1 0 1

Total # of neighbors = 2322852
Ave neighs/atom = 1008.1823
Ave special neighs/atom = 0.0000000
Neighbor list builds = 73912
Dangerous builds = 0

## ----- deletion for small NPs and salt ----- ##
#    reset_timestep 0

#    label checking

#    compute     peatom    all   pe/atom
#    variable    exppe    atom    exp(2*c_peatom/${ttemp})
#    compute     aveS    small   reduce ave v_exppe
#    compute     aveCl   anion   reduce ave v_exppe
#    compute     aveNa   cation  reduce ave v_exppe

#    fix AVE all ave/time 5 ${repeat} ${freq} c_aveS c_aveCl file average.dat
#    thermo 10000
#    thermo_style custom step pe c_press lx cpu
#    thermo_modify norm no flush yes
#    fix AVE all ave/time 1 ${repeat} ${freq} c_aveS c_aveCl c_aveNa
#    variable    chempNP equal ${ttemp}*(ln(v_numS/vol)+ln(v_numCl/vol)*25+ln(f_AVE[1])+ln(f_AVE[2])*25)
#    variable    chempS  equal ${ttemp}*(ln(v_numNa/vol)+ln(v_numCl/vol)+ln(f_AVE[2])+ln(f_AVE[3]))
#    timestep 0.0005
#    run ${freq}

#    print "done! ChempNP= ${chempNP}" append potential.dat
Total wall time: 7:53:19
