LAMMPS (27 Oct 2021)
OMP_NUM_THREADS environment is not set. Defaulting to 1 thread. (src/comm.cpp:98)
  using 1 OpenMP thread(s) per MPI task
package gpu 0
package gpu 2 neigh no pair/only on
#Lammps gcmc code for electrolytes

## ----- Simulation times ----- ##
    variable t_nve      equal 50000             #nve/limit
    variable t_deform 	equal 50000            #nvt
    variable t_pressed 	equal 50000            #nvt
    variable t_relaxed 	equal 100000            #nvt
    variable t_eq 	equal 10000000           #nvt

    variable smallc	equal 10
    variable bigc	equal -80
    variable numB	equal 256
    variable numS	equal ${numB}*8
    variable numS	equal 256*8
#    variable numCl	equal ${numS}*${smallc}+${bigc}*${numB}

## ----- Environment setting ----- ##
    boundary p p p
    atom_style full

## ----- System Variables  ----- ##
    variable    ttemp       equal   $b          	#reduced temperature
    variable    ttemp       equal   1.76          	
    variable    ppress      equal   0			#osmetic pressure
    variable    cutoff_pppm equal   27.8	        #cutoff for the real part of pppm
    variable	ipress      equal   0.1

    variable    bigd        equal   10                      #LJ sigmas
    variable    smalld      equal   2
#    variable    Cl_d        equal   0.4
    variable    d_bs        equal   0.5*(${bigd}+${smalld})
    variable    d_bs        equal   0.5*(10+${smalld})
    variable    d_bs        equal   0.5*(10+2)
#    variable    d_sNa       equal   0.5*(v_smalld+v_Na_d)
#    variable    d_sCl       equal   0.5*(v_smalld+v_Cl_d)
#    variable    d_bNa       equal   0.5*(v_bigd+v_Na_d)
#    variable    d_bCl       equal   0.5*(v_bigd+v_Cl_d)
#    variable    d_NaCl      equal   0.5*(v_Na_d+v_Cl_d)

    variable    cut_small   equal   ${smalld}*1.122462	    #cutoffs for LJ
    variable    cut_small   equal   2*1.122462	    
    variable    cut_big     equal   ${bigd}*1.122462
    variable    cut_big     equal   10*1.122462
#    variable    cut_Na_d    equal   ${Na_d}*1.122462
#    variable    cut_Cl_d    equal   ${Cl_d}*1.122462
    variable    cut_bs      equal   ${d_bs}*1.122462
    variable    cut_bs      equal   6*1.122462
#    variable    cut_bNa     equal   ${d_bNa}*1.122462
#    variable    cut_bCl     equal   ${d_bCl}*1.122462
#    variable    cut_sNa     equal   ${d_sNa}*1.122462
#    variable    cut_sCl     equal   ${d_sCl}*1.122462
#    variable    cut_NaCl    equal   ${d_NaCl}*1.122462

## ----- Initialization and grouping ----- ##
    read_data config_fcc8.dat
Reading data file ...
  orthogonal box = (-80.000000 -80.000000 -80.000000) to (80.000000 80.000000 80.000000)
  2 by 2 by 2 MPI processor grid
  reading atoms ...
  2304 atoms
Finding 1-2 1-3 1-4 neighbors ...
  special bond factors lj:    0        0        0       
  special bond factors coul:  0        0        0       
     0 = max # of 1-2 neighbors
     0 = max # of 1-3 neighbors
     0 = max # of 1-4 neighbors
     1 = max # of special neighbors
  special bonds CPU = 0.001 seconds
  read_data CPU = 0.009 seconds

    set type 1 charge   ${bigc}    	#large NPs
    set type 1 charge   -80    	
Setting atom values ...
  256 settings made for charge
    set type 2 charge   ${smallc}       #small NPs
    set type 2 charge   10       
Setting atom values ...
  2048 settings made for charge
#    set type 3 charge   1       #Na+
#    set type 3 charge   -1      #Cl-

    mass    *   0.2
    mass    1   25.0

    group big       type 1
256 atoms in group big
    group small     type 2
2048 atoms in group small
#    group cation    type 3
#    group anion     type 3

## ----- Interaction setting ----- ##
    pair_style lj/cut/coul/long ${cut_big} ${cutoff_pppm} #lj/cut/coul/long/soft 2.0 0.5 5.0 ${cut_small} ${cutoff_pppm}
    pair_style lj/cut/coul/long 11.22462 ${cutoff_pppm} 
    pair_style lj/cut/coul/long 11.22462 27.8 
    #Between regular particles (4*5/2=10)
    pair_coeff  1   1   2.0     ${bigd}     ${cut_big}	        # big-big
    pair_coeff  1   1   2.0     10     ${cut_big}	        
    pair_coeff  1   1   2.0     10     11.22462	        
    pair_coeff  2   2   2.0     ${smalld}   ${cut_small}	    # small-small
    pair_coeff  2   2   2.0     2   ${cut_small}	    
    pair_coeff  2   2   2.0     2   2.244924	    
#    pair_coeff  3   3   2.0     ${Na_d}     ${cut_Na_d}		    # Na-Na
#    pair_coeff  3   3   2.0     ${Cl_d}     ${cut_Cl_d}       	# Cl-Cl
    pair_coeff  1   2   2.0     ${d_bs}     ${cut_bs}	        # big-small
    pair_coeff  1   2   2.0     6     ${cut_bs}	        
    pair_coeff  1   2   2.0     6     6.734772	        
#    pair_coeff  1   3   2.0     ${d_bNa}    ${cut_bNa}	        # big-Na
#    pair_coeff  1   3   2.0     ${d_bCl}    ${cut_bCl}	        # big-Cl
#    pair_coeff  2   3   2.0     ${d_sNa}    ${cut_sNa}       	# small-Na
#    pair_coeff  2   3   2.0     ${d_sCl}    ${cut_sCl}       	# small-Cl
#    pair_coeff  3   4   2.0     ${d_NaCl}   ${cut_NaCl}       	# Na-Cl
#    pair_modify pair lj/cut/coul/long shift yes
    pair_modify shift yes
    kspace_style	pppm	5.0e-4

## ----- Simulation setup ----- ##
    neighbor 1.2 bin
    neigh_modify delay 0 every 1 check yes #one 2000

    compute temp all temp
    compute press all pressure temp

    thermo 5000
    thermo_style custom step pe temp c_press lx cpu
    thermo_modify norm no flush yes

   # dump moldump all custom 50000 ${xyzname} id type q x y z

## ----- Thermalization of system ----- ##
    timestep 0.0002

    fix 1 all nve/limit 0.05
    fix 2 big langevin ${ttemp} ${ttemp} 0.2 1234567
    fix 2 big langevin 1.76 ${ttemp} 0.2 1234567
    fix 2 big langevin 1.76 1.76 0.2 1234567
    fix 3 small langevin ${ttemp} ${ttemp} 0.008 123456
    fix 3 small langevin 1.76 ${ttemp} 0.008 123456
    fix 3 small langevin 1.76 1.76 0.008 123456

    fix freeze big setforce 0.0 0.0 0.0
    fix zeromom all momentum 1 linear 1 1 1 angular
    run ${t_nve}
    run 50000

CITE-CITE-CITE-CITE-CITE-CITE-CITE-CITE-CITE-CITE-CITE-CITE-CITE

Your simulation uses code contributions which should be cited:

- GPU package (short-range, long-range and three-body potentials):

@Article{Brown11,
 author = {W. M. Brown, P. Wang, S. J. Plimpton, A. N. Tharrington},
 title = {Implementing Molecular Dynamics on Hybrid High Performance Computers - Short Range Forces},
 journal = {Comp.~Phys.~Comm.},
 year =    2011,
 volume =  182,
 pages =   {898--911}
}

@Article{Brown12,
 author = {W. M. Brown, A. Kohlmeyer, S. J. Plimpton, A. N. Tharrington},
 title = {Implementing Molecular Dynamics on Hybrid High Performance Computers - Particle-Particle Particle-Mesh},
 journal = {Comp.~Phys.~Comm.},
 year =    2012,
 volume =  183,
 pages =   {449--459}
}

@Article{Brown13,
 author = {W. M. Brown, Y. Masako},
 title = {Implementing Molecular Dynamics on Hybrid High Performance Computers – Three-Body Potentials},
 journal = {Comp.~Phys.~Comm.},
 year =    2013,
 volume =  184,
 pages =   {2785--2793}
}

@Article{Trung15,
 author = {T. D. Nguyen, S. J. Plimpton},
 title = {Accelerating dissipative particle dynamics simulations for soft matter systems},
 journal = {Comput.~Mater.~Sci.},
 year =    2015,
 volume =  100,
 pages =   {173--180}
}

@Article{Trung17,
 author = {T. D. Nguyen},
 title = {GPU-accelerated Tersoff potentials for massively parallel Molecular Dynamics simulations},
 journal = {Comp.~Phys.~Comm.},
 year =    2017,
 volume =  212,
 pages =   {113--122}
}

@Article{Nikolskiy19,
 author = {V. Nikolskiy, V. Stegailov},
 title = {GPU acceleration of four-site water models in LAMMPS},
 journal = {Proceeding of the International Conference on Parallel Computing (ParCo 2019), Prague, Czech Republic},
 year =    2019
}

CITE-CITE-CITE-CITE-CITE-CITE-CITE-CITE-CITE-CITE-CITE-CITE-CITE

PPPM initialization ...
  using 12-bit tables for long-range coulomb (src/kspace.cpp:340)
  G vector (1/distance) = 0.11438956
  grid = 60 60 60
  stencil order = 5
  estimated absolute RMS force accuracy = 0.00041211524
  estimated relative force accuracy = 0.00041211524
  using double precision KISS FFT
  3d grid and FFT values/proc = 42875 28800
  generated 0 of 1 mixed pair_coeff terms from geometric mixing rule
Neighbor list info ...
  update every 1 steps, delay 0 steps, check yes
  max neighbors/atom: 2000, page size: 100000
  master list distance cutoff = 29
  ghost atom cutoff = 29
  binsize = 14.5, bins = 12 12 12
  1 neighbor lists, perpetual/occasional/extra = 1 0 0
  (1) pair lj/cut/coul/long/gpu, perpetual
      attributes: full, newton off
      pair build: full/bin
      stencil: full/bin/3d
      bin: standard
Per MPI rank memory allocation (min/avg/max) = 11.45 | 11.54 | 11.62 Mbytes
Step PotEng Temp c_press Lx CPU 
       0 1.7992005e+08            0    175.78446          160            0 
    5000   -68345.924    1.5704429 -0.0043082021          160    39.131874 
   10000   -73849.307    1.6412185 -0.0043372296          160    78.180059 
   15000   -78258.688    1.5357746 -0.0044698014          160    117.20972 
   20000   -82451.858    1.6108202 -0.0043594912          160    156.18047 
   25000   -86224.834    1.5931231 -0.0044528025          160    195.14678 
   30000   -89735.434    1.5659397 -0.0044103746          160    234.11228 
   35000   -92905.078    1.5789522 -0.0043080926          160    273.13405 
   40000   -95923.402    1.5922341 -0.0043473357          160    312.10506 
   45000   -98701.013    1.6145308 -0.0041892309          160    351.02422 
   50000   -101422.83    1.5442954 -0.0042237076          160    389.96938 
Loop time of 389.97 on 8 procs for 50000 steps with 2304 atoms

Performance: 2215.557 tau/day, 128.215 timesteps/s
99.7% CPU use with 8 MPI tasks x 1 OpenMP threads

MPI task timing breakdown:
Section |  min time  |  avg time  |  max time  |%varavg| %total
---------------------------------------------------------------
Pair    | 9.2917     | 9.6959     | 10.045     |   9.8 |  2.49
Bond    | 0.0071007  | 0.0095059  | 0.010592   |   1.1 |  0.00
Kspace  | 373.62     | 374.16     | 374.85     |   2.5 | 95.95
Neigh   | 0.05982    | 0.068248   | 0.076314   |   2.2 |  0.02
Comm    | 2.2884     | 2.7327     | 3.0911     |  18.3 |  0.70
Output  | 0.00035535 | 0.00063983 | 0.0026148  |   0.0 |  0.00
Modify  | 2.7475     | 2.8067     | 2.8651     |   2.5 |  0.72
Other   |            | 0.4976     |            |       |  0.13

Nlocal:        288.000 ave         313 max         260 min
Histogram: 2 0 0 1 0 2 1 0 0 2
Nghost:        1331.00 ave        1354 max        1299 min
Histogram: 1 0 0 2 1 0 1 0 1 2
Neighs:         0.00000 ave           0 max           0 min
Histogram: 8 0 0 0 0 0 0 0 0 0
FullNghs:      16559.2 ave       18862 max       14181 min
Histogram: 2 0 0 1 0 3 0 0 0 2

Total # of neighbors = 132474
Ave neighs/atom = 57.497396
Ave special neighs/atom = 0.0000000
Neighbor list builds = 73
Dangerous builds = 0

#    compute     peatom      all     pe/atom
#    variable    exppe       atom    exp(2*c_peatom/${ttemp})
#    compute     aveS        small   reduce ave v_exppe
#    compute     aveCl       anion   reduce ave v_exppe
#    compute     aveNa       cation  reduce ave v_exppe
#    thermo ${every}
#    thermo_style custom step pe temp lx vol c_aveS c_aveCl c_aveNa cpu
#    thermo_modify norm no flush yes
#    variable    chempNP     equal   temp*(ln(2304/vol)+ln(18300/vol)*10+ln(c_aveS)+ln(c_aveCl)*10)
#    variable    chempS      equal   temp*(ln(5500/vol)+ln(18300/vol)+ln(c_aveNa)+ln(c_aveCl))
#    label checking
#    run ${every}
#    if "${chempNP}>${mu_np}" then 'print "ChempNP=${chempNP}; expel"' "jump gcmc.in checking" else 'print "done!"'

    fix deforming all deform 10 x final -33 33 y final -33 33 z final -33 33 remap x
    run ${t_deform}
    run 50000
PPPM initialization ...
  using 12-bit tables for long-range coulomb (src/kspace.cpp:340)
  G vector (1/distance) = 0.11438956
  grid = 60 60 60
  stencil order = 5
  estimated absolute RMS force accuracy = 0.00041211524
  estimated relative force accuracy = 0.00041211524
  using double precision KISS FFT
  3d grid and FFT values/proc = 42875 28800
  generated 0 of 1 mixed pair_coeff terms from geometric mixing rule
Per MPI rank memory allocation (min/avg/max) = 11.45 | 11.54 | 11.62 Mbytes
Step PotEng Temp c_press Lx CPU 
   50000   -101422.83    1.5442954 -0.0042237076          160            0 
   55000   -107792.82    1.5941812 -0.0036391183        150.6     41.92263 
   60000   -114473.91    1.5399434 -0.0038896456        141.2    83.916962 
   65000   -121854.55    1.5965739 -0.0041305396        131.8    125.97751 
   70000   -129805.81    1.5793757 -0.0042836846        122.4    168.09756 
   75000   -138108.71    1.5949373 -0.0018452012          113    210.22864 
   80000   -146686.45    1.6267206 0.0023975335        103.6    252.38307 
   85000   -155518.13    1.5381345  0.010151985         94.2    294.69934 
   90000   -164026.07     1.572653  0.028670084         84.8    337.20567 
   95000   -172097.34    1.6156515  0.076553191         75.4    379.88019 
  100000   -181796.34    1.5977017   0.17602071           66    422.86997 
Loop time of 422.87 on 8 procs for 50000 steps with 2304 atoms

Performance: 2043.181 tau/day, 118.240 timesteps/s
99.7% CPU use with 8 MPI tasks x 1 OpenMP threads

MPI task timing breakdown:
Section |  min time  |  avg time  |  max time  |%varavg| %total
---------------------------------------------------------------
Pair    | 10.137     | 10.52      | 10.855     |   8.8 |  2.49
Bond    | 0.0078912  | 0.0098243  | 0.011252   |   1.0 |  0.00
Kspace  | 376.13     | 376.6      | 377.23     |   2.2 | 89.06
Neigh   | 0.78422    | 0.86605    | 0.95855    |   6.3 |  0.20
Comm    | 3.6866     | 4.1813     | 4.5748     |  15.0 |  0.99
Output  | 0.00045894 | 0.004849   | 0.011271   |   5.5 |  0.00
Modify  | 25.345     | 27.883     | 29.97      |  34.0 |  6.59
Other   |            | 2.804      |            |       |  0.66

Nlocal:        288.000 ave         305 max         270 min
Histogram: 2 0 0 1 0 2 1 0 0 2
Nghost:        5823.25 ave        5876 max        5781 min
Histogram: 2 1 1 0 1 1 0 0 0 2
Neighs:         0.00000 ave           0 max           0 min
Histogram: 8 0 0 0 0 0 0 0 0 0
FullNghs:      232756.0 ave      248475 max      217746 min
Histogram: 2 0 0 1 0 3 0 0 0 2

Total # of neighbors = 1862052
Ave neighs/atom = 808.18229
Ave special neighs/atom = 0.0000000
Neighbor list builds = 334
Dangerous builds = 0

    unfix 1
#    unfix 2
    unfix freeze
    unfix deforming

    timestep 0.002

    fix 1 all   nph	            iso ${ipress} ${ipress} 1.0
    fix 1 all   nph	            iso 0.1 ${ipress} 1.0
    fix 1 all   nph	            iso 0.1 0.1 1.0
    run ${t_pressed}
    run 50000
PPPM initialization ...
  using 12-bit tables for long-range coulomb (src/kspace.cpp:340)
  G vector (1/distance) = 0.1206864
  grid = 32 32 32
  stencil order = 5
  estimated absolute RMS force accuracy = 0.00049681107
  estimated relative force accuracy = 0.00049681107
  using double precision KISS FFT
  3d grid and FFT values/proc = 9261 4096
  generated 0 of 1 mixed pair_coeff terms from geometric mixing rule
Per MPI rank memory allocation (min/avg/max) = 9.326 | 9.330 | 9.334 Mbytes
Step PotEng Temp c_press Lx CPU 
  100000   -181756.41    1.5977017   0.17765307           66            0 
  105000   -200110.57    1.7368285   0.10134489    61.981116     14.15242 
  110000   -201736.17    1.7366537   0.10133247    60.946786    28.542248 
  115000   -203256.61    1.7541881  0.097506298     60.33685    43.152895 
  120000   -203803.94    1.7629354    0.1003265    60.165883    57.771097 
  125000   -204038.74    1.8168967   0.10349983    60.123852    72.436287 
  130000   -204447.19    1.7147878    0.1033494    60.034861    87.082456 
  135000   -204797.86    1.8251244  0.099876053    60.062565    101.75516 
  140000   -204571.91    1.7509845   0.10015751    60.084166    116.39194 
  145000   -205078.81    1.7569633  0.094462015     60.05732    131.03077 
  150000   -205132.12    1.7681865  0.097875372    60.011392    145.65055 
Loop time of 145.651 on 8 procs for 50000 steps with 2304 atoms

Performance: 59320.004 tau/day, 343.287 timesteps/s
97.5% CPU use with 8 MPI tasks x 1 OpenMP threads

MPI task timing breakdown:
Section |  min time  |  avg time  |  max time  |%varavg| %total
---------------------------------------------------------------
Pair    | 13.462     | 17.909     | 20.701     |  49.8 | 12.30
Bond    | 0.0048208  | 0.0061937  | 0.0074707  |   1.0 |  0.00
Kspace  | 66.487     | 67.187     | 67.866     |   5.8 | 46.13
Neigh   | 6.8531     | 7.1147     | 7.4864     |   7.9 |  4.88
Comm    | 6.0902     | 6.1391     | 6.1808     |   1.3 |  4.21
Output  | 0.00031164 | 0.00047843 | 0.0016207  |   0.0 |  0.00
Modify  | 42.388     | 45.309     | 49.868     |  33.2 | 31.11
Other   |            | 1.985      |            |       |  1.36

Nlocal:        288.000 ave         293 max         281 min
Histogram: 1 0 0 0 1 3 0 1 0 2
Nghost:        7259.75 ave        7286 max        7233 min
Histogram: 1 0 1 1 1 0 3 0 0 1
Neighs:         0.00000 ave           0 max           0 min
Histogram: 8 0 0 0 0 0 0 0 0 0
FullNghs:      314706.0 ave      320459 max      306776 min
Histogram: 1 0 0 0 3 0 1 1 1 1

Total # of neighbors = 2517650
Ave neighs/atom = 1092.7300
Ave special neighs/atom = 0.0000000
Neighbor list builds = 774
Dangerous builds = 0
    unfix 1
    fix 1 all   nph	            iso ${ipress} ${ppress} 1.0
    fix 1 all   nph	            iso 0.1 ${ppress} 1.0
    fix 1 all   nph	            iso 0.1 0 1.0
    run ${t_relaxed}
    run 100000
PPPM initialization ...
  using 12-bit tables for long-range coulomb (src/kspace.cpp:340)
  G vector (1/distance) = 0.12140925
  grid = 30 30 30
  stencil order = 5
  estimated absolute RMS force accuracy = 0.00050071316
  estimated relative force accuracy = 0.00050071316
  using double precision KISS FFT
  3d grid and FFT values/proc = 8000 3600
  generated 0 of 1 mixed pair_coeff terms from geometric mixing rule
Per MPI rank memory allocation (min/avg/max) = 9.782 | 9.802 | 9.813 Mbytes
Step PotEng Temp c_press Lx CPU 
  150000   -205131.99    1.7681865  0.097880363    60.011392            0 
  155000   -205363.45    1.7360839  0.085724799    60.150519    14.131295 
  160000   -205256.75    1.8147093  0.091490998    60.126628    28.265583 
  165000   -205289.72    1.7714816  0.075687291    60.229979    42.380775 
  170000   -205105.03    1.7194128  0.085570978     60.19333    56.537289 
  175000   -205225.05    1.7687345  0.078025188     60.31018    70.680787 
  180000   -204975.47    1.7743957  0.069105419    60.448565     84.75582 
  185000   -205145.15    1.7698057  0.063808068    60.499943    98.817033 
  190000   -204853.92    1.7557622  0.061753045    60.543877     112.9282 
  195000   -205021.25    1.7938835  0.048878517    60.706224    127.02799 
  200000   -205147.67    1.8149366  0.046559457    60.700869     141.1174 
  205000   -205109.79    1.7701657  0.044755753    60.727948     155.1779 
  210000   -204995.67    1.7485148  0.041049747    60.801383    169.22647 
  215000   -204845.22    1.7752352  0.030110415    60.998237    183.29496 
  220000   -204867.45    1.7881171  0.035446406    60.967782    197.32569 
  225000   -204962.72    1.7401837  0.025825359    61.146409    211.30547 
  230000    -204598.2    1.7801456  0.023936508    61.258173    225.26213 
  235000   -204537.49    1.7696518  0.011804337      61.4117    239.17596 
  240000   -204286.35    1.7733485 0.0062659176    61.566862     253.1318 
  245000   -204230.71    1.7802064 0.0055958848    61.608055    267.07091 
  250000   -203803.91    1.7576092 0.0016384823    61.793673    280.95252 
Loop time of 280.953 on 8 procs for 100000 steps with 2304 atoms

Performance: 61505.024 tau/day, 355.932 timesteps/s
94.5% CPU use with 8 MPI tasks x 1 OpenMP threads

MPI task timing breakdown:
Section |  min time  |  avg time  |  max time  |%varavg| %total
---------------------------------------------------------------
Pair    | 49.056     | 58.614     | 65.273     |  57.8 | 20.86
Bond    | 0.010107   | 0.012213   | 0.014899   |   1.5 |  0.00
Kspace  | 108.91     | 110.3      | 111.33     |   9.6 | 39.26
Neigh   | 13.933     | 14.297     | 14.741     |   8.2 |  5.09
Comm    | 12.254     | 12.333     | 12.415     |   1.9 |  4.39
Output  | 0.00062801 | 0.00097674 | 0.0033593  |   0.0 |  0.00
Modify  | 60.067     | 78.307     | 91.937     | 110.3 | 27.87
Other   |            | 7.087      |            |       |  2.52

Nlocal:        288.000 ave         291 max         281 min
Histogram: 1 0 0 0 1 1 0 0 0 5
Nghost:        6887.38 ave        6906 max        6869 min
Histogram: 2 0 0 2 1 0 0 0 2 1
Neighs:         0.00000 ave           0 max           0 min
Histogram: 8 0 0 0 0 0 0 0 0 0
FullNghs:      286920.0 ave      290461 max      279718 min
Histogram: 1 0 0 1 1 0 0 0 3 2

Total # of neighbors = 2295360
Ave neighs/atom = 996.25000
Ave special neighs/atom = 0.0000000
Neighbor list builds = 1556
Dangerous builds = 0
    unfix 1

    timestep 0.001
    dump moldump all custom 10000 ${xyzname} id type q x y z
    dump moldump all custom 10000 r8f0_coulombic_1.76.lammpstrj id type q x y z
    fix 1 all   nph                 iso ${ppress} ${ppress} 1.0
    fix 1 all   nph                 iso 0 ${ppress} 1.0
    fix 1 all   nph                 iso 0 0 1.0
    run ${t_eq}
    run 10000000
PPPM initialization ...
  using 12-bit tables for long-range coulomb (src/kspace.cpp:340)
  G vector (1/distance) = 0.12072006
  grid = 30 30 30
  stencil order = 5
  estimated absolute RMS force accuracy = 0.00054512705
  estimated relative force accuracy = 0.00054512705
  using double precision KISS FFT
  3d grid and FFT values/proc = 8000 3600
  generated 0 of 1 mixed pair_coeff terms from geometric mixing rule
Per MPI rank memory allocation (min/avg/max) = 11.05 | 11.07 | 11.08 Mbytes
Step PotEng Temp c_press Lx CPU 
  250000   -203803.96    1.7576092 0.0016366807    61.793673            0 
  255000   -203644.71    1.7617389 0.0037025714    61.901484    13.424171 
  260000   -203736.57    1.7574068 0.0024087129    61.882465    26.831794 
  265000   -203719.17    1.8079751 0.0067365691    61.905106    40.202087 
  270000   -203546.22    1.7929227  0.000127117    62.063732    53.553452 
  275000   -203737.29    1.7612409 -0.0067926258    62.011423    66.911179 
  280000   -203623.95    1.7546635 -0.0018208892    61.996604    80.263863 
  285000   -203487.29    1.8176689 -0.0021102593    62.021069    93.603639 
  290000   -203505.31    1.7529098 -0.0021836867    62.028363    106.97293 
  295000   -203450.66    1.7700217 0.00049368297    62.099307    120.32752 
  300000   -203229.27    1.7568262 -0.0070483678    62.199015     133.6335 
  305000   -203583.61    1.7776027 0.00012686747    62.010124    147.01525 
  310000   -203477.31    1.7797626 -0.0086652333    62.144317    160.37633 
  315000   -203473.04    1.7884418 0.0060891378    61.972222    173.78551 
  320000   -203666.52     1.743878 0.00098579027    62.013245    187.13304 
  325000   -203549.86    1.7148195 -0.0011933691    61.982267    200.50934 
  330000   -203557.41    1.7472953 -0.0020396341    62.046366     213.8886 
  335000   -203652.44    1.7209504 -0.0062664309    62.075215    227.26465 
  340000   -203332.22    1.7428631 0.0085062559     62.04974     240.6442 
  345000   -203560.68    1.7829056 -0.0022148325    62.003148     254.0252 
  350000   -203649.61    1.7564298  0.002403556    61.992055    267.40117 
  355000   -203566.41    1.7386106 0.00062602873    62.049045    280.78779 
  360000   -203590.93    1.7874672 -0.0058159616    62.087097    294.18304 
  365000   -203511.09    1.7443807 0.0067788419    61.993839    307.54021 
  370000   -203212.91    1.7718735 -0.0022840461    62.209636    320.89801 
  375000    -203078.8     1.788522 0.00024929578    62.245201    334.19097 
  380000    -203028.7    1.7274361 -0.0057768445    62.293849    347.53558 
  385000   -203039.51    1.7319129 0.0076953732    62.142072    360.83433 
  390000   -202791.55    1.7719183 0.0016957655    62.343163    374.12931 
  395000   -203012.73    1.7874197 0.00073472403    62.261966    387.42202 
  400000   -203108.03    1.7429329 0.0051862335    62.217787    400.73463 
  405000   -202863.33    1.7323595 0.0050403004    62.335027    414.01668 
  410000   -202770.02    1.7061082 0.0011821707    62.466631    427.28865 
  415000   -202854.68    1.7805546 0.00026154298     62.44406    440.53773 
  420000   -202541.27     1.741391 8.548309e-05    62.539429    453.81628 
  425000   -202678.22    1.7376975 0.0037331015    62.466492    467.08842 
  430000    -202545.1     1.801096 -0.0009676655    62.555888    480.29022 
  435000   -202631.11    1.7363653 -0.0013112385    62.524972    493.55352 
  440000   -202645.39     1.721823 0.0064433801    62.436025    506.81516 
  445000    -202461.7    1.7375087 -0.00087903621    62.632271    520.07193 
  450000    -202620.3    1.7366919 0.0013564372    62.486491    533.31505 
  455000   -202696.32    1.7816723 0.0017611547    62.513365    546.57165 
  460000   -202702.59     1.712364 0.0061112818    62.434857    559.80407 
  465000   -202781.48    1.7602584 -0.00021559732    62.527436    573.04263 
  470000   -202612.85    1.7781542 0.0029708979    62.543229    586.32857 
  475000   -202569.39    1.7606716 -0.0004360241      62.4955    599.57282 
  480000   -202636.86    1.7620752 -0.00084765118    62.514042    612.80715 
  485000   -202675.73    1.7794041  0.001396657    62.475877    626.11506 
  490000   -202715.21    1.7742946 -0.0023565668    62.441178    639.37618 
  495000   -202462.62    1.7216633 0.0022953017    62.500772    652.66497 
  500000   -202719.29    1.7598752 0.0023284945    62.434928    665.90946 
  505000   -202737.15    1.7825661 0.0020013771    62.480337    679.12478 
  510000   -202510.85    1.7648887 0.0064561253    62.512087     692.3724 
  515000   -202510.67    1.7571778 0.0081337034    62.529794    705.61697 
  520000   -202461.62    1.7713485 0.0050081236    62.584455    718.84196 
  525000   -202564.16     1.774708 0.0029710016    62.535587     732.0603 
  530000   -202466.74    1.7554979 7.4874786e-05    62.655752    745.29919 
  535000   -202585.26    1.7404268 -0.00087384552    62.648404    758.54848 
  540000   -202633.93     1.760034 -0.0053147037    62.604215     771.7759 
  545000   -202277.76    1.6935602 0.0024876919    62.620937    785.00273 
  550000   -202451.39    1.7616483 -0.00075957142    62.637059    798.23331 
  555000   -202672.17    1.7671905 -0.0022911365    62.611831    811.48256 
  560000   -202634.16    1.7444328 0.0015649179    62.617914    824.68674 
  565000   -202511.26    1.7694882 -0.0092178377    62.804139    837.93087 
  570000   -202530.87    1.7691532 -0.0045151878    62.704938    851.17211 
  575000   -202442.56    1.7683995 0.0044376872    62.640583    864.42872 
  580000   -202628.86    1.7385622 0.0080483183    62.472492     877.6819 
  585000   -202714.34    1.7421552 -0.0075336573    62.640885    890.93496 
  590000    -202591.8    1.7841603 0.0062139434     62.54483    904.18703 
  595000   -202528.56    1.7423808 -0.00061796505    62.666888    917.41401 
  600000    -202550.4    1.7707182 0.00090483863    62.672236    930.64044 
  605000   -202310.82    1.7077936 -0.00058976451    62.773301    943.83814 
  610000   -202426.75    1.7698376 0.0031749749    62.659365    957.03787 
  615000   -202501.02    1.7674579 -0.00098118598    62.619099    970.24881 
  620000   -202325.72    1.7772079 -0.0015119815    62.780667    983.43264 
  625000   -202118.11     1.807005 0.0056420846    62.815364    996.61471 
  630000   -202130.58    1.7449487 -0.0023448603     62.77445    1009.8332 
  635000   -202272.72    1.7243868 -0.0058355208    62.844368    1023.0322 
  640000   -201956.68    1.7608496 -0.0050949019    62.972465    1036.2551 
  645000   -202313.91    1.7610494 -0.0015680642    62.751023     1049.444 
  650000    -202172.4     1.805131 0.00065220087    62.797927    1062.6276 
  655000   -202076.13    1.7567438 0.0023856042    62.867689    1075.8071 
  660000   -202123.09    1.7786776 0.00095209639    62.854546    1089.0041 
  665000   -202220.52     1.769265 0.0022612721    62.769014    1102.1712 
  670000   -202044.42     1.810941 -0.00039778723    62.944599    1115.3625 
  675000   -202012.65    1.7685289 -0.002756704    62.957254    1128.5593 
  680000   -202095.08    1.7629811 0.0011910947    62.910018    1141.7009 
  685000   -202007.49    1.7655169 0.0030236511    62.920454    1154.8553 
  690000   -201939.52    1.7538471 -0.0010239486    62.978448    1168.0362 
  695000   -201727.11    1.7325926 -3.1504649e-05    63.085243    1181.1856 
  700000   -201818.01    1.7364808 -0.00028353621    63.164121    1194.2973 
  705000   -201977.41    1.7571123 -0.0026356886    63.099536    1207.4057 
  710000   -201786.29    1.7869349 0.00026693898    63.221884    1220.4915 
  715000   -202001.34    1.7667343 -0.0005090039    63.213275    1233.5697 
  720000   -201839.19    1.7583261 -0.00044406961    63.191809    1246.6878 
  725000   -201801.71    1.8021227 0.0022767323    63.153851    1259.7481 
  730000    -201947.2    1.7941948 0.00048495073    63.235794    1272.8482 
  735000   -201926.43    1.7758497 0.0017005501    63.080699    1285.9604 
  740000    -201635.9    1.7542325 -0.0055103898    63.198905     1299.127 
  745000   -201746.72     1.721803 -0.0033226202    63.253774    1312.2385 
  750000   -201869.01    1.7436659 -0.0023857704    63.233724    1325.3407 
  755000   -201974.81    1.7666639 -0.0015908725    63.247623    1338.4554 
  760000   -201841.86    1.7581204 0.0030531511    63.146086    1351.5448 
  765000   -201678.31    1.7683264 -0.0040389487    63.392591    1364.6498 
  770000   -201626.12    1.7357969 0.0032531695    63.300448    1377.7211 
  775000   -201497.12    1.7636995 -0.00053707305    63.409585     1390.793 
  780000   -201474.56    1.7300614 -0.0024347881    63.417765    1403.8697 
  785000   -201703.59    1.7517937 -0.0034399218    63.506878    1416.9625 
  790000   -201603.72     1.757279 0.0025988733    63.505252    1430.0545 
  795000   -201564.34    1.7506923 0.0030476032    63.559707     1443.146 
  800000   -201314.84    1.7374085 -0.0028746405    63.753228    1456.1638 
  805000   -201460.18    1.7301395 -0.00064847216    63.746944    1469.2129 
  810000   -201392.84    1.7793234  0.005787692    63.701807    1482.2476 
  815000    -201404.5    1.7538157 -0.0026348709    63.935173    1495.2567 
  820000   -201177.46    1.7834985 -0.004677355    64.098123      1508.27 
  825000   -201259.32    1.7696935  0.002855347    63.900645    1521.2883 
  830000   -201215.85    1.7195751 0.0027790026    64.009116     1534.266 
  835000   -201179.68    1.7506961 0.0023093923    64.070343    1547.2233 
  840000   -201043.74    1.7939964 -0.0015529255    64.207779    1560.2066 
  845000   -201073.22    1.7873506 -0.0015961307    64.267129    1573.1485 
  850000   -201077.69    1.8311228 0.00066552843    64.253738    1586.0791 
  855000   -201116.04    1.7568647 0.0049952435    64.163338    1599.0192 
  860000   -201066.48    1.8063449 0.0034515135    64.297565    1611.9472 
  865000   -200961.06    1.7288188 -0.0034283743    64.416316    1624.8963 
  870000   -201209.76    1.7693164 -0.0029262199    64.367527     1637.812 
  875000   -200958.16    1.7720034  0.001247564    64.438136    1650.7242 
  880000   -201142.89    1.7386336 -0.00033840484    64.386525    1663.6608 
  885000   -201017.91     1.811718 0.0038843692    64.295065    1676.6072 
  890000   -201223.75    1.7601114 0.00093474053    64.309037    1689.5893 
  895000   -201061.91     1.742991 -0.0055867468    64.582359    1702.4896 
  900000   -200927.33    1.7860736 -0.0001682824    64.594057    1715.4213 
  905000   -200883.85    1.7862001 -0.0041760686    64.728087    1728.3568 
  910000   -201078.77    1.7553577 0.00091783591    64.639855    1741.2594 
  915000   -200974.36    1.7710044 0.00094914456    64.669595     1754.165 
  920000   -201023.34    1.8129514 -0.00077996113    64.677101    1767.0853 
  925000   -200891.58    1.7660084 -0.0023613597      64.7877    1779.9448 
  930000   -201004.23    1.7236866  -0.00125005    64.701002    1792.8323 
  935000   -201065.46    1.7746172 0.0018735137    64.644293    1805.6646 
  940000   -200816.27    1.7574846 0.0018231433     64.75561    1818.4977 
  945000      -200856    1.7768114 0.0067193702    64.795626    1831.3423 
  950000    -200869.6    1.7652574 0.0058700166    64.922836    1844.1889 
  955000   -200825.71    1.7625508 0.0035156023    65.010819    1856.9695 
  960000   -200838.81    1.7500361  0.003187934    64.992211    1869.7706 
  965000   -200807.87     1.726468 0.0017088118    65.117056    1882.5688 
  970000   -200866.99    1.7636833 -0.0046872793    65.138778    1895.3705 
  975000   -201055.12    1.7631802 0.00047402839    65.033936    1908.1956 
  980000   -200865.63    1.7815406 0.0029206078    65.105361    1920.9864 
  985000   -200786.81    1.7477371 0.0021624865    65.194104    1933.7853 
  990000   -200617.19     1.746053 0.0036691694    65.177237    1946.5686 
  995000   -200915.31    1.7734482 -0.00029443057    65.256889     1959.308 
 1000000    -200754.5    1.7495487 0.0012549268    65.142337    1972.0775 
 1005000    -200966.4    1.7366888 0.0014472078    65.160869    1984.8561 
 1010000   -200810.17    1.7294981 -0.0011180152     65.31647    1997.6119 
 1015000   -200749.26    1.7662751 -0.0031305739    65.377198    2010.3878 
 1020000    -200776.5    1.7759287 0.0017861129    65.239347    2023.1662 
 1025000   -200822.65    1.7737956 0.0032173836    65.184202    2035.9308 
 1030000   -201013.64    1.7657091 0.0057668558    65.070257    2048.7088 
 1035000   -200711.03    1.7285465 -0.0053946617    65.457232    2061.5086 
 1040000   -200530.08    1.7063788 -0.0066831468    65.587406    2074.2973 
 1045000    -200791.7    1.8177301 0.0049981202    65.200847    2087.0395 
 1050000   -200714.48    1.7723084 -0.0004866862    65.437092    2099.7801 
 1055000   -200669.87    1.8188588 -0.0019202868     65.40148    2112.5266 
 1060000   -200613.51    1.7581602 -0.0045089796    65.418508     2125.283 
 1065000    -200771.6    1.7931308 -0.00096544755    65.326702    2138.0581 
 1070000   -200732.64    1.7461748 0.0018918626    65.245385    2150.7849 
 1075000   -200750.19    1.7642167 0.0018098772    65.220963      2163.57 
 1080000   -200876.73    1.7748622 -0.0011910613    65.246556    2176.3521 
 1085000   -200460.69    1.7161743 -0.0043034968    65.253311    2189.1485 
 1090000   -200866.95    1.7466676 -0.00067120457    65.216468    2201.9322 
 1095000   -200783.49    1.7908997 0.0026679683    65.109639    2214.7194 
 1100000   -200673.21    1.7338341 0.0003628018     65.17952    2227.4905 
 1105000   -200677.27    1.7678634 -0.001724606    65.149572    2240.2761 
 1110000   -200982.73    1.7911143 0.0034235692    65.102655    2253.0701 
 1115000   -200867.51    1.7603421 0.0011763545    65.151534    2265.8145 
 1120000   -200837.51    1.7734677 7.8319373e-06    65.203169    2278.5744 
 1125000   -200836.84      1.80373 -0.0015554419    65.302942    2291.3487 
 1130000   -200690.17    1.7816328 0.0014692537    65.326383     2304.123 
 1135000   -200898.78     1.752967 -0.00084476806    65.246661    2316.8952 
 1140000   -200769.32     1.777606 -0.0026046261    65.276192    2329.6669 
 1145000   -200622.13    1.7233409 0.0028822001    65.172509     2342.479 
 1150000   -200780.18    1.7928691 0.0019928009    65.149134     2355.237 
 1155000   -200744.69    1.7088858 0.0045777185    65.049466    2368.0079 
 1160000   -200753.02    1.7474368 -0.0014846306    65.151205     2380.784 
 1165000   -200722.37    1.7734255 -0.00098384948    65.114544    2393.5784 
 1170000   -200580.02    1.7390371 -0.0049034924    65.264029    2406.3472 
 1175000   -200733.66     1.719448 0.0045249988    65.163733    2419.1495 
 1180000   -200936.08     1.742325 0.0032071692    65.170857    2431.9122 
 1185000   -200888.04    1.8046714  0.002238459    65.193705    2444.6667 
 1190000   -200943.23    1.7340184 -0.0027990839    65.280957    2457.4682 
 1195000   -200713.95     1.706089 -0.00059816442    65.118322    2470.1773 
 1200000   -200670.46    1.7624334 4.6422284e-05    65.159812    2482.9945 
 1205000    -200649.6    1.7604766 0.0034992208    65.148159    2495.8057 
 1210000   -200640.79     1.749448 -0.0036271642    65.213509    2508.5725 
 1215000   -200497.64    1.6898662 -0.0013207657    65.181364    2521.3464 
 1220000    -200581.3    1.7436116 -0.0016916185    65.168774    2534.0829 
 1225000   -200669.46    1.7770258 0.00037174747    65.094458    2546.8328 
 1230000   -200786.23     1.739509 0.0018255852    65.062629    2559.6124 
 1235000   -200824.81    1.7302665 0.0012126077    64.953452    2572.3861 
 1240000   -200455.75    1.7132892 -0.0045492365    65.163888     2585.198 
 1245000   -200623.28    1.7873204 -0.004351966    65.203858    2597.9597 
 1250000   -200780.95    1.7426997 0.00095739286    65.072429    2610.7424 
 1255000   -200704.43    1.7549018 -0.001743638    65.098613    2623.5322 
 1260000   -200806.38    1.7617928 -7.5542414e-05    65.100533    2636.3382 
 1265000   -200674.04    1.7748967 -0.0034742265    65.239299    2649.1417 
 1270000   -200621.55    1.7970761 0.0054872146    65.248528    2661.9513 
 1275000    -200724.8    1.7901795 0.0035660909     65.19812    2674.7256 
 1280000   -200609.91    1.7597343 0.0031848766    65.235718    2687.5311 
 1285000   -200484.49    1.7435785 -0.0041123548       65.341    2700.3303 
 1290000   -200700.08    1.7669091 -0.00026983978    65.216329    2713.0799 
 1295000   -200608.76    1.7736384 0.0028856497    65.303184    2725.8412 
 1300000   -200968.54    1.7781305 -0.0029044863    65.275673    2738.6078 
 1305000   -200667.32    1.7376696 0.00092783579     65.14719    2751.4173 
 1310000   -200753.61     1.753636 -0.0003589378    65.207105    2764.2125 
 1315000   -200922.18    1.7246192 0.0017322856    65.165216    2777.0243 
 1320000   -200634.05    1.7296696 -0.0024966694    65.240075    2789.8118 
 1325000    -200722.5    1.7340583 -0.001767019    65.226322    2802.5955 
 1330000   -200904.88    1.6885405 0.00014821368    65.080713    2815.3778 
 1335000   -200826.61    1.7583322 0.0043275722     65.10457    2828.1583 
 1340000   -200608.14    1.7504136 -0.0010481062    65.172266    2840.9669 
 1345000   -200682.64    1.7919147 -0.0024366127     65.15372    2853.8055 
 1350000   -200811.53    1.7677762 -0.0018915041    65.178947    2866.6069 
 1355000   -200828.56    1.7200612 0.0048428598    65.041216    2879.4216 
 1360000   -200945.49    1.7731516 -0.002774675     65.13346    2892.2161 
 1365000   -200784.83    1.7432258 -0.0043482326    65.205859    2905.0286 
 1370000   -200749.54    1.7128219 0.0043847918    65.088375    2917.8109 
 1375000   -200713.27    1.7700257 -0.0049061449    65.201422    2930.6159 
 1380000   -200697.28    1.7850659 0.0023349605    65.097575     2943.361 
 1385000   -200930.77    1.8245869 0.00021384154    65.072104    2956.1341 
 1390000   -200775.68    1.7363643 0.0016480799    65.020366    2968.9432 
 1395000   -200653.79    1.7539328 0.0079025262    65.040951    2981.7554 
 1400000   -200625.81    1.7666267 -0.0037941508     65.24064    2994.5652 
 1405000   -200715.84    1.7390206 0.00069723002    65.122896    3007.3921 
 1410000   -200758.88    1.7499955 -0.0011738412    65.120776    3020.1972 
 1415000   -200705.49    1.7249861 0.0035714221    65.057217    3032.9759 
 1420000   -200675.02    1.7627135 -0.0024274892    65.094031    3045.7694 
 1425000   -200728.09    1.7428627 -0.0017552697    65.165076    3058.5877 
 1430000   -200778.58    1.7090625 -0.0024132945    65.233782    3071.3867 
 1435000   -200628.87    1.7477803 -0.0025263534    65.247029    3084.1454 
 1440000   -200706.68    1.7524552 -0.0010635993    65.222962    3096.9398 
 1445000   -200782.23    1.8139722 -0.0039797072    65.298212    3109.6979 
 1450000   -200643.28    1.7739347 -0.0042709999    65.326437    3122.4978 
 1455000   -200746.87    1.7500245 0.00019192528    65.253212    3135.2664 
 1460000   -200687.18    1.7776444  0.002528069    65.185922    3148.0211 
 1465000   -200626.93    1.8100541 0.0012950107    65.240431    3160.7901 
 1470000   -200557.98    1.7617609 0.0042306707    65.167335    3173.6301 
 1475000   -200689.89     1.758098  0.001522487    65.182897    3186.3972 
 1480000   -200681.65    1.7794007 0.0026355483    65.114837    3199.1914 
 1485000   -200671.75    1.7847159 0.0015123792    65.141835    3211.9535 
 1490000   -200878.42    1.7600419 -0.00090972858    65.039843    3224.7774 
 1495000   -200761.94    1.6805968 0.0024020161    65.139953    3237.5748 
 1500000   -200901.56    1.7032455 -0.0022685299    65.205922    3250.3447 
 1505000   -200667.75    1.7163033 -0.002992492    65.282212    3263.1451 
 1510000   -200813.91    1.7611473 -0.0029397352    65.291007    3275.8977 
 1515000    -200869.4    1.8466615 8.6784595e-05    65.222904    3288.7076 
 1520000   -200726.51    1.7781765 -0.0070913634     65.40195    3301.4668 
 1525000   -200771.89    1.7537705 -0.0012532485    65.225479    3314.2527 
 1530000   -200730.65    1.7299537 0.0035852413     65.17541    3327.0014 
 1535000   -200647.15    1.7590229 -0.00053075037    65.240423     3339.787 
 1540000   -200748.26    1.8200165  -0.00419275      65.2683    3352.5672 
 1545000   -200705.22       1.7731 -0.00058315943    65.174517    3365.3329 
 1550000   -200948.89    1.7558767 -0.00060523216    65.203638    3378.0925 
 1555000   -200863.86    1.7551423 -6.9461726e-05     65.20089     3390.862 
 1560000   -200981.66    1.7677322 0.0032122601    65.173283     3403.617 
 1565000   -200734.45    1.7645102 0.00026528455    65.229111    3416.3904 
 1570000   -200680.01    1.7279872 -0.0012157154    65.204633    3429.1818 
 1575000   -200644.32    1.7617067 -0.0010410574    65.221136     3441.956 
 1580000   -200599.99    1.7306568 0.0051031305    65.164294    3454.7485 
 1585000    -200555.9    1.7757489 -0.0016100527    65.343212    3467.5229 
 1590000   -200722.16    1.7762509 -0.0011494553    65.255908    3480.2742 
 1595000   -200675.92    1.7285267 -0.0021021032    65.304226    3493.0647 
 1600000   -200650.02    1.7877706 0.00043237637     65.30702    3505.8534 
 1605000   -200599.98    1.7896079 -0.0016963446    65.372049    3518.6278 
 1610000   -200559.36    1.7669663 -0.0024298131    65.349027    3531.4042 
 1615000   -200721.52    1.7443557 -0.0024297391    65.310133    3544.2046 
 1620000    -200648.3    1.7747689 2.6924457e-05    65.242659    3557.0092 
 1625000   -200650.67    1.7852719 -0.0064016529    65.350059    3569.7955 
 1630000   -200697.31    1.7693383  0.003008964    65.202703    3582.6164 
 1635000   -200932.22    1.7118265 0.0011329148     65.17288    3595.3772 
 1640000   -200821.76     1.754798  0.002648708    65.207022    3608.1474 
 1645000   -200800.31    1.8115354 -0.0019467376    65.309531    3620.9492 
 1650000   -200926.38    1.7445621 0.0028806852    65.221552    3633.6875 
 1655000   -200706.38    1.7296595 0.0035585934    65.268854    3646.4706 
 1660000   -200595.97    1.7422485 -0.0068783063    65.526516    3659.2247 
 1665000   -200665.43    1.7376212 -0.001692675    65.413832    3672.0271 
 1670000   -200710.34    1.8016223 -0.00046552192    65.384911    3684.7926 
 1675000   -200667.99    1.7568402 -0.00063176626    65.365679    3697.5302 
 1680000   -200801.23    1.7894498 0.0021615501    65.324607    3710.2933 
 1685000   -200828.47    1.7523662 -0.0028364755    65.334967    3723.0385 
 1690000   -200614.96    1.7474821 -0.00088347789    65.315601     3735.835 
 1695000   -200877.92    1.7828995  0.001371225    65.334438    3748.6014 
 1700000   -200710.49     1.729672 0.0012312717    65.307616    3761.3635 
 1705000   -200605.74    1.7452035  0.001124195    65.307212    3774.1326 
 1710000   -200616.39    1.7515582 0.0034605583    65.252491     3786.969 
 1715000   -200747.83    1.7239408 0.0011657112    65.257422    3799.7102 
 1720000   -200721.22    1.7551327 0.0031623196    65.253627    3812.4776 
 1725000   -200892.14    1.7571885 0.00098610737    65.201196    3825.2824 
 1730000   -200739.53    1.7460795 0.0042432183    65.134238    3838.0373 
 1735000   -200816.85    1.7752946 -0.004696443    65.199607    3850.8243 
 1740000    -200706.5    1.7202978 0.00036576003    65.162435    3863.5959 
 1745000   -200832.11     1.788514 0.0044068723    65.166504    3876.4314 
 1750000   -200769.96    1.7291339 -0.003562273    65.246245    3889.2064 
 1755000   -200714.08    1.7972084  0.002013579    65.213131    3901.9805 
 1760000   -200933.66       1.8042 0.00069228424     65.22911    3914.7569 
 1765000   -200735.19    1.7937759 0.00073062798    65.211488    3927.5216 
 1770000   -201024.51    1.7354632 -0.0018786919    65.146897    3940.2845 
 1775000   -200834.69     1.759509 0.0011010284    65.182866    3953.0434 
 1780000   -200866.79    1.7558167 -0.0033862482    65.264323    3965.8266 
 1785000   -200802.47    1.7180716 0.0004907553    65.192519    3978.6216 
 1790000   -200868.68    1.7299266 0.0055759597    65.095396    3991.3819 
 1795000   -200880.13    1.7319895 -0.00075065249    65.254063    4004.1986 
 1800000    -200791.3    1.8015761 0.0010872585    65.237538    4016.9964 
 1805000   -200727.81    1.7751807 0.00054259409    65.216175    4029.7883 
 1810000   -200722.08    1.7987305 0.0011263351    65.228842    4042.5882 
 1815000   -200651.54    1.7249801 -0.0045972501    65.263251     4055.383 
 1820000   -200754.62    1.8013982 -0.0012900481    65.215679    4068.1617 
 1825000   -200559.15    1.7433364 -0.0018693982    65.304789    4080.9441 
 1830000   -200535.15    1.7719309 -0.0067661249    65.336466    4093.7331 
 1835000   -200743.57    1.7140563 0.00071619344    65.257153    4106.4875 
 1840000   -200724.62    1.7989076 0.0028933904    65.210749    4119.2528 
 1845000    -200845.4     1.785218 0.0051721559     65.15573    4132.0861 
 1850000   -200688.64    1.7443506 0.0023844197    65.067622    4144.8958 
 1855000    -200829.9    1.7626633 0.00098143387    65.056701    4157.6469 
 1860000   -200638.99    1.6891213 -0.0047574902    65.198004    4170.4646 
 1865000   -200779.18    1.6984502 0.00049484322    64.985919    4183.2789 
 1870000   -200698.67    1.7842402 -0.00028472355    65.054127    4196.0857 
 1875000   -200913.77    1.7503349 -0.003094877    65.115428    4208.9226 
 1880000   -200589.63    1.7709468 0.0038963675    65.114921    4221.7402 
 1885000   -200812.42    1.7672205 -0.0014824478    65.009279    4234.5601 
 1890000   -200709.89    1.7524156 0.0038577425    64.913635    4247.3457 
 1895000   -200751.02    1.7867404 0.0021557646    64.964752    4260.1698 
 1900000   -200628.12    1.7693466  0.003432172    64.983807    4272.9695 
 1905000   -200813.18    1.7441759 -0.00097025531    65.133423    4285.8054 
 1910000   -200879.12    1.8010023 0.0055327695    65.064677    4298.5899 
 1915000   -200848.53    1.7237252 0.0030145368    65.018315    4311.4149 
 1920000   -200694.24    1.7720035 0.0040349728    65.159231    4324.2235 
 1925000   -200756.49    1.7319214 -0.0013676454    65.301191    4336.9883 
 1930000   -200773.64    1.7807924 -0.0009625662     65.36187     4349.706 
 1935000   -200695.78    1.7564408 -0.00093544661    65.258171     4362.462 
 1940000   -200664.15    1.7120476 0.00056050124    65.214162    4375.2251 
 1945000   -200621.36    1.7833046 0.0010110148    65.199512    4388.0381 
 1950000    -200717.8    1.7400953 0.00091275641    65.281626    4400.8441 
 1955000   -200708.67    1.7750945 0.0012089151    65.230308    4413.5859 
 1960000   -200815.13     1.782823 0.0021936902    65.150788    4426.3775 
 1965000   -200776.67    1.7751244 -0.00075515016    65.313032    4439.1497 
 1970000   -200750.48    1.7860564 0.0015047707    65.198399    4451.9063 
 1975000   -200724.96      1.76418 -0.0027037156    65.281834     4464.704 
 1980000    -200815.8    1.7268543 -0.0018282469     65.27001    4477.4764 
 1985000   -200866.94    1.7688652 -0.0022497964    65.258693    4490.2509 
 1990000   -200779.33    1.7498926 -0.0033000573    65.237533    4503.0022 
 1995000   -200747.35    1.7153499 -0.0064411381    65.300386    4515.7843 
 2000000   -200853.69    1.7970335 -0.0065885308    65.269938     4528.592 
 2005000   -200837.95    1.7985106 0.0017050608    65.106602    4541.4157 
 2010000   -200639.41    1.7690867 0.0057183737    65.128378    4554.2591 
 2015000   -200718.07    1.7752069 0.0017218927    65.257722    4567.0954 
 2020000   -200872.95    1.7995137 -0.0030999697    65.287095    4579.8833 
 2025000   -200758.63    1.7310454 0.0030776207    65.193321    4592.6991 
 2030000   -200678.62    1.7828978 -0.0017960381    65.274085    4605.4631 
 2035000      -200792    1.7457954 0.0024045219    65.165401    4618.2729 
 2040000   -200748.89    1.7106511 0.0024676795    65.169257    4631.0647 
 2045000   -200661.86    1.7721518 0.00079407083    65.232594     4643.893 
 2050000   -200719.44    1.7119088 0.0022160195    65.199599    4656.6799 
 2055000   -200634.43    1.7449043 -0.0030168711    65.201977    4669.4854 
 2060000   -200678.26    1.7081019 0.0040975855    65.137255    4682.3037 
 2065000   -200506.39    1.7907885 -0.0048091252    65.362212    4695.0687 
 2070000    -200673.6    1.7523747 -0.0031339828    65.284288    4707.8671 
 2075000    -200811.6    1.7658508 -0.00081511452    65.148421    4720.6805 
 2080000   -200701.98    1.7355281 -0.003085753    65.240967    4733.4745 
 2085000   -200493.58    1.7465673 0.0054933907    65.177516    4746.2757 
 2090000   -200682.92    1.7789287 -0.0033228223    65.206891    4759.1016 
 2095000   -200847.54    1.7571031 0.0012065363    65.143559    4771.8938 
 2100000    -200946.3    1.7562009 -0.0012695462    65.173043    4784.7024 
 2105000   -200759.17    1.7744778 0.0013898183    65.199789    4797.4929 
 2110000   -200920.27    1.8121174 0.0044848345    65.153898    4810.3167 
 2115000    -200755.7    1.7517762 0.0074341664    65.123061    4823.1288 
 2120000   -200773.74    1.7661737 -0.0022187827    65.349226    4835.9119 
 2125000   -200800.43    1.7802004 0.0015931771    65.100994    4848.6957 
 2130000    -200832.3    1.7525957 0.0026640778    65.078511    4861.5197 
 2135000   -200854.27    1.7616293 -0.00016154344    65.079305     4874.358 
 2140000   -200694.97    1.7570543 0.0012874549    65.148581    4887.1835 
 2145000   -200859.01    1.7571535 -0.0010698466    64.984352    4900.0162 
 2150000   -201005.01    1.7781926 -0.0023028414    65.070553    4912.8266 
 2155000   -200614.62     1.801313 -0.0042761005    65.163886    4925.6593 
 2160000   -200723.98    1.7477656 -0.0037020448    65.188555    4938.4895 
 2165000   -200907.92    1.7164615 0.0068841672    65.034845    4951.3335 
 2170000   -200824.69    1.7629092  0.005549666    65.040291    4964.1465 
 2175000   -200590.67    1.7981328 -0.0009083663    65.094611    4976.9652 
 2180000   -200527.53    1.6719183 -0.0012597652    65.037576     4989.801 
 2185000   -200932.66    1.7724774 0.0046840535    65.040611     5002.615 
 2190000   -200686.24    1.7613642 0.0028702948    65.143044     5015.392 
 2195000    -200614.7    1.7931469 -0.0013530781    65.267912     5028.132 
 2200000   -200794.33    1.7258156 -0.0043281352     65.20481    5040.9133 
 2205000   -200550.46    1.7399613 -0.0065250056    65.380149     5053.728 
 2210000   -200651.61    1.7455398 -0.00086909946     65.21612    5066.4894 
 2215000   -200575.86    1.7335247 -0.0085196857    65.335346    5079.2654 
 2220000   -200850.31    1.7849314 0.0053970248    65.116782    5092.0729 
 2225000    -200901.4    1.7699815 -0.001781682    65.194977    5104.8573 
 2230000   -200871.24    1.7432405 -0.0045985764    65.254813    5117.6537 
 2235000   -200800.02    1.8024343 0.0039262625    65.170441    5130.4304 
 2240000   -200861.98    1.7905098 0.0017245957    65.170567    5143.2196 
 2245000   -200941.74    1.7611342 -0.0030225484    65.159821    5156.0336 
 2250000   -200923.12    1.7610688 0.0002745287    65.217697    5168.8157 
 2255000   -200649.79    1.7477069 -0.0020965213    65.449641    5181.6161 
 2260000   -200841.27    1.7704437 -0.0021828407    65.330744    5194.4095 
 2265000   -200694.89    1.7772759 0.0046188143    65.384362    5207.2006 
 2270000   -200833.94    1.7802418 0.00093317984    65.355693    5219.9528 
 2275000   -200618.73    1.7380589 -0.0016206807    65.397191    5232.7135 
 2280000   -200501.62    1.8228251 -0.0010500874    65.367907    5245.4381 
 2285000   -200721.52    1.7339588 -0.0061714631    65.258647    5258.2015 
 2290000   -200859.86    1.7794002 0.0018050812    65.185073    5271.0058 
 2295000      -200979    1.7744737 -0.0015168216     65.16584    5283.8143 
 2300000   -200618.29    1.7119572 -0.00080520359    65.155472    5296.5548 
 2305000   -200897.35    1.7653974 -0.00081202656    65.089295    5309.3761 
 2310000   -200606.37    1.7620822 -0.0038616434    65.178882    5322.1392 
 2315000   -200834.39    1.7702867 0.0007998677     65.06235    5334.9367 
 2320000    -200922.8    1.7749863 0.00049753236    65.088683    5347.7527 
 2325000    -200930.4    1.7367281 0.0026218395    65.010962    5360.5524 
 2330000    -200715.3    1.8227868 -0.00048705951    65.121029    5373.3717 
 2335000   -200856.06    1.7428986 -0.0060109015    65.039627    5386.1853 
 2340000   -200443.98      1.77759 0.0020418197    64.952561    5399.0544 
 2345000   -200711.29    1.7454086 -0.0013200261    65.040516    5411.9104 
 2350000   -200718.78    1.7944027  0.002013462    65.016209     5424.735 
 2355000   -200800.72    1.7084865 0.00037288764     65.01219    5437.5583 
 2360000   -200664.34    1.7400848 0.0061260919    64.972776    5450.4259 
 2365000   -200570.03      1.76487 0.00024742748    64.992517    5463.2589 
 2370000   -200770.23    1.7713002 0.0016878253    65.015774    5476.0752 
 2375000   -200662.17    1.7559861 0.0010176498    65.042595    5488.8665 
 2380000   -200781.98    1.7638782 0.0049742737    64.979473    5501.6772 
 2385000   -200802.31    1.7501142 0.0013521217    65.044327    5514.4905 
 2390000   -200793.65    1.7321131 -0.00047495083    65.087534     5527.291 
 2395000   -200787.16    1.7549598 0.0035627615    65.065837    5540.1217 
 2400000    -200780.5    1.7609169 0.00053478883     65.02526    5552.9466 
 2405000   -200763.13    1.7867272 -0.0022501148    65.169795    5565.7572 
 2410000    -200819.2    1.7515039  0.003638259    64.962356    5578.6025 
 2415000   -200919.73    1.7351192 0.0025878845    65.004449    5591.4357 
 2420000   -200973.48     1.740837 0.0016886352    65.015939    5604.2857 
 2425000   -200877.21    1.7459665  0.001283676    65.023104    5617.1083 
 2430000   -200801.91    1.8460488 -0.0048423161    65.177129    5629.9698 
 2435000   -200779.33    1.7510465 -0.00073456362    65.103006    5642.8118 
 2440000   -200633.87    1.7445893  0.004542421     65.05361    5655.6181 
 2445000   -200752.24    1.7838202 -0.0011672137    65.170872    5668.4108 
 2450000   -200583.05    1.7506066 -0.0013570965    65.213283    5681.1928 
 2455000   -200771.27    1.7226687 0.00049339598    65.084088    5694.0186 
 2460000   -200802.03    1.7994129 0.0086953959    65.056629    5706.8294 
 2465000   -200793.82    1.6624706 -0.0080479376    65.182079    5719.6476 
 2470000   -200901.64    1.7659581  0.003968151     64.95883    5732.4835 
 2475000   -200642.75    1.6980341 -0.0027157845    65.172372    5745.3022 
 2480000    -200771.5    1.7923629 0.0030323863    65.103019    5758.1181 
 2485000   -200908.34    1.7612719 -0.0017278307      65.1183    5770.9182 
 2490000   -200760.52    1.7197282 -0.0044816994    65.181281    5783.7091 
 2495000   -200844.39    1.7120731 -0.0031966976    65.214828    5796.4987 
 2500000   -200873.16    1.7627061 -0.00046305962    65.119419    5809.3178 
 2505000   -200587.93    1.7762453  0.000461413    65.212208    5822.1237 
 2510000   -200777.55    1.7298321 -0.0013847662    65.253327    5834.9509 
 2515000    -200630.1    1.7847314 -0.0011169315    65.291178    5847.7216 
 2520000   -200700.15    1.7401759 -0.0024401819    65.231959    5860.5433 
 2525000      -200893    1.7673527 -0.00016871363      65.1261    5873.3568 
 2530000   -200790.98    1.8037645 0.0005604422    65.128259    5886.1375 
 2535000   -200625.11    1.7811752 0.0038509167    65.132478    5898.9252 
 2540000   -200658.96    1.7959617 0.00056914922    65.170295    5911.7324 
 2545000   -200638.37     1.695519 0.0015577279    65.170476    5924.4561 
 2550000   -200681.33    1.7191134 -0.0024001248    65.251314    5937.1884 
 2555000   -200864.17    1.7557131 -0.0032494849    65.211493    5949.9639 
 2560000   -200690.73    1.7266057 -0.00099051928    65.189982    5962.7149 
 2565000    -200663.5    1.7750524 -0.0044488927    65.214646    5975.4981 
 2570000   -200706.44     1.782757 0.00054103931    65.152811    5988.2534 
 2575000   -200573.81    1.7167409 -0.0036017395    65.209226    6001.0427 
 2580000   -200765.54    1.7426631 -0.0015934726     65.19623    6013.7971 
 2585000   -200814.49    1.7567773 -1.1226902e-05    65.204998    6026.5528 
 2590000   -200456.15    1.7871103 -0.0049205182     65.31028    6039.3317 
 2595000   -200684.18    1.7651787 0.0026699111    65.130115    6052.1305 
 2600000   -200546.83    1.7877373 0.0016317625    65.182591    6064.9195 
 2605000   -200535.01    1.7818575 -0.0014258244    65.210982    6077.7201 
 2610000   -200637.71    1.7617607 0.00048794197    65.267436    6090.5102 
 2615000   -200720.35    1.7293523 0.0030584467    65.184946     6103.282 
 2620000   -200631.97    1.7689994 -0.00043068238    65.262042    6116.0235 
 2625000   -200897.22    1.7463944 0.00065218106    65.148577    6128.8327 
 2630000   -200659.56    1.7574691 -0.00039723342    65.146225    6141.6375 
 2635000    -200926.8    1.7903969 0.0031100986    65.178368     6154.423 
 2640000   -200765.44    1.8134836 0.0020343811    65.300006    6167.1886 
 2645000   -200646.51    1.7652991 -0.0040581626    65.275571     6179.918 
 2650000   -200615.63    1.7659249 -0.0027371168    65.239702    6192.7018 
 2655000   -200612.35    1.7652549 0.0016907548      65.2242    6205.4792 
 2660000   -200885.79    1.7744047 -0.0037566576    65.224434    6218.2384 
 2665000   -200918.59    1.7458978 0.0018914409    65.172565    6230.9812 
 2670000   -200777.64    1.8205503 -0.0032125211    65.222536     6243.713 
 2675000   -200894.72    1.7201303 -0.00014148702    65.148302    6256.5175 
 2680000   -200827.23    1.8004534 -0.00024130515    65.062116    6269.3088 
 2685000   -200861.65    1.7603502 0.0049447471    64.989343    6282.0963 
 2690000   -200691.46    1.7585375 0.0078440685    64.886988    6294.9239 
 2695000   -200808.02    1.8038045 0.0042843366    64.992783    6307.6882 
 2700000   -200844.77    1.7467445 -0.001584039    65.094227    6320.4427 
 2705000   -200792.55    1.7874346 0.0013763465    65.069996    6333.2062 
 2710000    -200630.4    1.7431289 0.0016873201     65.19869     6346.006 
 2715000   -200672.11    1.7873673 -0.0003745864    65.215715    6358.7583 
 2720000    -200589.9    1.7170677 -0.0019747834    65.252831     6371.518 
 2725000   -200685.77    1.7491463 0.00037442461    65.195793    6384.2819 
 2730000   -200762.88     1.769746 0.0025855488    65.234039    6397.0263 
 2735000   -200880.89    1.7714919 0.0031986879    65.288057    6409.7585 
 2740000    -200850.6    1.7350001 0.0047827973    65.232721    6422.5592 
 2745000   -200552.12    1.7226031 -0.0028032818    65.308591    6435.3523 
 2750000   -200667.28    1.7763205 -0.0051326266    65.353312      6448.15 
 2755000   -200553.05    1.7517275 0.00062987357    65.313036    6460.9209 
 2760000   -200739.33    1.7402582 -6.759902e-05    65.295996    6473.7012 
 2765000   -200716.36    1.7728026 0.0021260025    65.205868    6486.4827 
 2770000    -200706.1    1.7774775 -0.0047671481    65.334523    6499.2381 
 2775000   -200888.74    1.7400912 -0.0012830206     65.22386    6512.0147 
 2780000   -200800.42    1.7564135 0.0025148308    65.104999    6524.8055 
 2785000    -200765.6     1.699699 -0.0015112631    65.268797    6537.6434 
 2790000   -200852.11    1.7871247 0.0037832934    65.117539    6550.4233 
 2795000    -200871.4    1.7573401 0.0026305142    65.120794    6563.2112 
 2800000   -200784.25    1.7445552 0.0019743273    65.218816    6576.0133 
 2805000   -200843.76    1.7483191 0.0017887041    65.121646    6588.7419 
 2810000   -200842.32    1.7325371 0.0033627426    64.968162    6601.5239 
 2815000   -200839.96    1.7586351 0.0040845358    65.009375    6614.3064 
 2820000    -200819.7    1.7751447 0.0013246415    65.061675    6627.1078 
 2825000    -200670.2    1.7425761 -0.0028518777    65.212989    6639.8608 
 2830000   -200807.21    1.7555713 0.0013642882    65.147005    6652.6289 
 2835000   -200802.59    1.7702436 -0.0010176867    65.126178    6665.3919 
 2840000   -200850.03    1.7802295 -0.0011782648    65.147363    6678.1599 
 2845000   -200741.55    1.7347481 -0.0039748301    65.231311    6690.9454 
 2850000   -200738.35    1.7482532 -0.001399423    65.168968    6703.7009 
 2855000   -200582.65    1.7957923 0.00059940054    65.226505    6716.4791 
 2860000   -200660.69    1.7860607 -0.00047060792    65.284502    6729.2095 
 2865000   -200502.96    1.7453651 0.0043574571    65.212348    6741.9507 
 2870000   -200708.96    1.7456267 -0.0016965729    65.289238    6754.7386 
 2875000   -200871.36    1.7069484 -0.0021478438    65.325101    6767.5032 
 2880000   -200666.95    1.7636931 -0.0010501681    65.312483    6780.2874 
 2885000   -200566.25    1.7616729 0.00050107371    65.261834    6793.0651 
 2890000   -200747.88    1.7206309 -0.0016305185     65.31454     6805.828 
 2895000   -200790.33    1.7465983 -0.0011735531    65.280011    6818.6051 
 2900000   -200941.52    1.7356013 -0.0015970592    65.283765    6831.3439 
 2905000    -200597.4    1.7788825 -0.0019033536       65.284     6844.103 
 2910000   -200705.47    1.7218752 -0.0027481237    65.323858    6856.8774 
 2915000   -200550.99    1.7497402 -4.0851546e-05     65.44513    6869.6547 
 2920000   -200657.96    1.6878064 0.0039460176    65.385048    6882.4061 
 2925000   -200616.95    1.7645833 0.0007112296    65.379916    6895.1834 
 2930000    -200695.8    1.7588633 0.0022769652    65.273023    6907.9312 
 2935000   -200578.22     1.752655 0.00011055094    65.276753    6920.6692 
 2940000    -200750.9    1.7874556 -0.0024171285    65.299481    6933.4711 
 2945000   -200700.18    1.7728764 0.0034113104    65.233697    6946.2094 
 2950000   -200640.03    1.7711061 -0.0001915571      65.3473    6958.9509 
 2955000   -200702.14    1.7486993 6.7667421e-05    65.278699    6971.7263 
 2960000   -200763.77    1.7611456 -0.00051669089    65.270964    6984.4948 
 2965000    -200837.8    1.7719282 -0.00079025704    65.276177    6997.2751 
 2970000   -200595.66    1.7525392 -0.0061546888    65.465547     7010.042 
 2975000   -200705.09    1.7823065 0.0054975514    65.309065    7022.8094 
 2980000   -200751.93    1.7216289 -0.0034018989    65.363299    7035.5921 
 2985000   -200676.78    1.7618617 -0.00050518096    65.356657    7048.3859 
 2990000   -200596.17    1.7679964 0.00037116388    65.283873    7061.1403 
 2995000   -200686.41    1.7817601 -0.00042318032    65.377604    7073.8651 
 3000000    -200755.2    1.7759157 -0.0006943372    65.309737    7086.6115 
 3005000   -200612.96    1.7439746 -0.0031382316    65.242299    7099.3537 
 3010000    -200664.1    1.8072517 0.00031837298    65.282917    7112.1617 
 3015000   -200670.81      1.74535 -0.0018797122     65.30112    7124.9408 
 3020000   -200513.17    1.7691042 -0.0015164181    65.299377    7137.6951 
 3025000   -200605.25    1.7586941 -0.0015153052    65.217125    7150.4932 
 3030000   -200755.13    1.7701347 -0.0051121199    65.195546    7163.2865 
 3035000   -200758.56    1.7149877 0.0032012822    65.189642     7176.076 
 3040000   -200630.61     1.711178 -0.001407765    65.135391     7188.831 
 3045000   -200842.47    1.7195155 0.0041138265    64.999971    7201.5903 
 3050000   -200729.61    1.7224244 -0.0022796547    65.223407    7214.3669 
 3055000   -200883.53    1.7870887 0.00051021062    65.013944    7227.1521 
 3060000   -200739.92    1.7452165 -0.0024010634    65.146908    7239.9271 
 3065000   -200873.93    1.7011671   0.00326747    65.167328    7252.7306 
 3070000   -200919.47    1.7396127 0.0024373478    65.051552    7265.5382 
 3075000   -200835.84    1.7029079 7.0897685e-05    65.099358    7278.3455 
 3080000   -200627.02    1.7568755 -0.00080527887    65.101548    7291.1782 
 3085000   -200740.48    1.7099695 -0.0015174921    65.088061    7303.9937 
 3090000   -200780.45    1.7843203 0.0051873842    64.991477    7316.7719 
 3095000   -200669.94    1.7734628 -0.0025670821    65.201828     7329.581 
 3100000   -200568.58    1.7804497 0.00066731605    65.129965    7342.3739 
 3105000      -200490    1.7940363 -0.0018057107    65.202878    7355.1908 
 3110000   -200725.68    1.7992168 3.1181122e-05    65.120251    7368.0002 
 3115000   -200666.25    1.7598873 -0.0050717282    65.253711    7380.8326 
 3120000   -200728.01    1.7686234 -0.0010521626    65.091645    7393.6223 
 3125000   -200861.31    1.7271282 -0.0024876232    65.045718    7406.4393 
 3130000    -200904.4    1.7700331 -0.0030531394    65.078088    7419.2541 
 3135000   -200768.19    1.7436367 -0.0024210444    65.129226     7432.022 
 3140000   -200678.85    1.7562059 0.0038226507    65.025778    7444.8922 
 3145000   -200621.83    1.7610239 0.0043049677    65.026998     7457.688 
 3150000    -200887.1    1.7889432 -0.0010218293    65.073996    7470.5011 
 3155000   -200763.25    1.7264887 -0.00027915953    65.002509    7483.2755 
 3160000   -200915.18    1.7363111 0.0010809375    64.927157    7496.0732 
 3165000   -200830.55    1.7262792 -0.0019284757     65.16166    7508.9002 
 3170000   -200849.35    1.7381505 0.0042400188    65.094258    7521.7324 
 3175000   -200760.33    1.7939531 0.0021805676    65.121971    7534.5584 
 3180000   -200721.74    1.7814525  0.003113713    65.156083    7547.3698 
 3185000   -200724.39    1.8281127 -0.0012026671    65.223817    7560.1718 
 3190000   -200757.78    1.7239026 -0.0027620735    65.200587    7572.9792 
 3195000   -200692.39    1.7517612 -0.0035120105    65.318383    7585.7545 
 3200000   -201090.21    1.7129297 -0.000683126    65.205999     7598.576 
 3205000   -200870.23    1.7457181 0.0034520214    65.206954    7611.3727 
 3210000   -200937.47    1.7708442 -0.00064402466    65.222442    7624.1576 
 3215000   -200924.43    1.7913128 0.0054913999    65.101676    7636.9444 
 3220000   -200780.05    1.7555562 0.00055281024      65.2143    7649.7483 
 3225000   -200826.33    1.7287686 -0.00010106991    65.215159    7662.5471 
 3230000   -200887.13    1.7572072 0.0025590639    65.156106    7675.3561 
 3235000   -200731.52     1.735873 -0.003273151    65.229095    7688.1846 
 3240000   -200774.81    1.7615591 -0.00092655551    65.209262    7700.9624 
 3245000   -200612.47    1.7553181 0.0026739887      65.2413     7713.723 
 3250000   -200818.37    1.7167319 0.0016745105    65.109558      7726.53 
 3255000   -200892.17    1.7869195 -0.0031518287    65.192336     7739.364 
 3260000   -200540.45    1.7332736 0.00041679428    65.220545    7752.2037 
 3265000   -200767.53    1.7513602 0.0031411285    65.097403    7765.0315 
 3270000    -200739.6    1.7351759 0.0012943164    65.129369    7777.8217 
 3275000   -200794.97    1.7652802 -0.0020215015    65.203702    7790.6291 
 3280000   -200820.66    1.7530765 0.0071711859    65.055676    7803.4374 
 3285000   -200847.64    1.7808666 -0.0049679703    65.294398    7816.2193 
 3290000   -200860.74     1.769669 -0.0020719596     65.23871    7829.0312 
 3295000   -200707.48    1.7712682 -0.00096079073    65.195989    7841.8441 
 3300000   -200907.78    1.7279174 -0.0011009588    65.190593    7854.6392 
 3305000   -200897.83     1.747397 -0.0047767346    65.173697    7867.4239 
 3310000   -200800.63    1.7652908 -0.0013830647    65.120006    7880.2561 
 3315000   -200795.35    1.7747493 0.0031433805    65.086034    7893.0214 
 3320000   -200757.89     1.797815 -0.0024549831    65.100475    7905.8505 
 3325000      -200679    1.7356334 0.0034546014    65.063814    7918.7076 
 3330000   -200638.27    1.7568537 -0.0014541928    65.105739    7931.5306 
 3335000   -200756.05    1.7895526 -0.0020352189    65.095686    7944.3242 
 3340000   -200718.37    1.7195191 0.0053800984    64.910313    7957.1631 
 3345000   -200918.99    1.7247162 -0.0016797797    65.197563     7969.997 
 3350000   -200782.46    1.7488784 -0.0022596862    65.151321     7982.751 
 3355000   -200790.41    1.7494668    0.0019514    65.192611    7995.5599 
 3360000   -200728.49    1.7192581 -0.00014580798    65.306213    8008.3382 
 3365000   -200771.22    1.7776341 0.0030654844    65.225826    8021.1095 
 3370000   -200723.69     1.772682 -0.0036448698    65.445571    8033.8904 
 3375000   -201068.22    1.7905032 0.0016678214    65.207925    8046.6865 
 3380000    -200891.1    1.7377386 -0.0014923422     65.16454    8059.4759 
 3385000   -200669.11    1.7155784 0.0040591319    65.194332    8072.2521 
 3390000   -200901.06    1.7129176 -0.0032331276    65.115193    8085.0633 
 3395000   -200710.75    1.7654692 -0.0022490766    65.213555    8097.8084 
 3400000   -200781.57    1.7140009 0.0010535779     65.20578    8110.5957 
 3405000   -200795.13    1.7556295 0.0024880052    65.091614    8123.4127 
 3410000   -200661.64    1.7452316  0.002415109    65.159463    8136.2159 
 3415000   -200667.33    1.8136807 0.0030040735    65.009228    8149.0185 
 3420000   -200780.81    1.7787935 -0.0034104241    65.095906    8161.8469 
 3425000   -200784.78    1.7752131 0.0024204757    64.947375    8174.6235 
 3430000   -200858.19    1.7704349 0.0016546894    64.939277    8187.4003 
 3435000   -200823.15    1.8149377 0.0031899164     64.93337    8200.2308 
 3440000    -200719.8    1.8069894 -0.0050359751    65.193481    8213.0562 
 3445000   -200686.12    1.7678711 -0.0054094067    65.203964    8225.8534 
 3450000   -200818.75    1.7603064 0.0016939364    65.024618    8238.6596 
 3455000   -200866.37    1.7093715 0.00093394505    65.026743     8251.491 
 3460000   -200927.41    1.7155505 0.00021262118    65.037332    8264.2821 
 3465000   -200699.32    1.7125478 -0.0014614375    64.992745    8277.1157 
 3470000   -200927.97    1.7478164 -0.0052986079    65.074711    8289.9635 
 3475000   -201016.21    1.7227139 -0.0055524248    65.011791    8302.7734 
 3480000   -200747.18    1.7461159  0.001480037    64.822315    8315.6726 
 3485000   -200722.76     1.732779 -0.001176044    64.892307    8328.5467 
 3490000   -200774.49    1.7452078 0.0015905742    64.890438    8341.3619 
 3495000   -200545.63    1.7682511 0.0049122851     64.98277    8354.2234 
 3500000   -200775.25    1.7697494 -0.00087609528    65.051289    8367.0466 
 3505000   -200810.32    1.7586344 0.00029458607    65.010015    8379.8545 
 3510000   -200862.69    1.7314425 -0.0032828215    65.078026    8392.6559 
 3515000   -200696.15    1.8052874 0.0018685677    65.106237      8405.49 
 3520000   -200623.31    1.7364418 -0.00033257869    65.063362    8418.2888 
 3525000   -200587.34     1.741819 -0.0031318308    65.114332    8431.0824 
 3530000    -200860.1    1.7612959 -0.00013876566    64.868432    8443.9333 
 3535000   -200852.05    1.7907397 0.0024925709    64.916562    8456.7916 
 3540000   -200763.37    1.7761724 0.0018232501    64.949854    8469.6159 
 3545000   -200692.08    1.7271742 -0.00099440104    65.073764    8482.4123 
 3550000   -200809.35    1.7154793 -0.0025831564    65.131158    8495.2104 
 3555000   -200673.07    1.8285826 0.0034526743    65.045743    8508.0047 
 3560000   -200618.17    1.7863054 -0.0022606081    65.152111    8520.8277 
 3565000   -200855.67    1.7351121  0.001238932    65.033135    8533.6433 
 3570000   -200630.07    1.7902995 0.0021451385    65.117385    8546.4784 
 3575000   -200820.49    1.7674129 0.00028204219    65.002491    8559.3185 
 3580000   -200856.61    1.7431164 0.00086270478    65.072043    8572.1404 
 3585000   -200790.94    1.7897412 -0.0014180062    65.180375    8584.9367 
 3590000   -200849.05     1.776848 -0.0028360104    65.119562    8597.7485 
 3595000   -200714.51    1.7454305 0.0014491449    65.143981      8610.55 
 3600000   -200694.29     1.805888 -0.0022308793    65.341919    8623.3435 
 3605000    -200684.6    1.7929703 -0.0053420923    65.390998    8636.1771 
 3610000   -200720.93    1.7215181 0.0010378297    65.208351    8648.9542 
 3615000   -200579.55    1.7461107 0.0014802838    65.267159    8661.7806 
 3620000   -200762.69    1.7331436 0.0037465744     65.07649    8674.5936 
 3625000   -200602.76    1.7857888 -0.00045912974    65.215762    8687.3868 
 3630000   -200815.84    1.7147741  0.001352767    65.076953    8700.1846 
 3635000   -200668.85    1.7645269 0.0028907115    65.167545    8712.9969 
 3640000   -200581.74    1.7594598 0.0028794795     65.16587    8725.8012 
 3645000   -200658.92    1.7550413 -0.002978134    65.211321    8738.5821 
 3650000    -200901.7    1.7621429 -0.00055724111    65.179239    8751.4148 
 3655000    -200767.3    1.7315189 0.00052246039    65.211171    8764.2149 
 3660000   -200647.45    1.7576734 0.00039670671    65.245397    8777.0259 
 3665000   -200920.21    1.7631217 0.0043834411    65.052772    8789.8597 
 3670000    -200908.4    1.7058338 -0.0028759462    65.179002    8802.6253 
 3675000   -200643.22    1.7571862 -0.00070569181    65.250149    8815.4265 
 3680000   -200744.26    1.7149871 -0.0053978726    65.307529    8828.2045 
 3685000   -200805.01    1.7800169 0.0025531052    65.099554    8840.9804 
 3690000    -200540.4    1.7779742 0.0035293648    65.132693    8853.7794 
 3695000   -200562.89    1.8051224 -0.0042104635    65.322336    8866.5786 
 3700000    -200731.5    1.7512382 0.0053606213    65.194923    8879.4014 
 3705000   -200928.44    1.7841892 -0.0012356397    65.269911    8892.1928 
 3710000   -200813.16    1.7028204 0.0060086372     65.05642    8905.0193 
 3715000   -200814.89    1.7273654 0.0005074341    65.101969    8917.8176 
 3720000   -200472.07    1.7924899 0.0028937975    65.182164    8930.6334 
 3725000   -200838.67    1.7675055 -0.004052746    65.172203    8943.4483 
 3730000   -200749.64    1.7968287 0.00054146227    65.210958    8956.2345 
 3735000   -200616.88     1.805011  0.002872897    65.161416    8969.0164 
 3740000    -200814.5    1.7631828 -0.0015561423    65.179289    8981.8217 
 3745000   -200654.63    1.7672194 -0.0018582661    65.299003    8994.6314 
 3750000   -200671.76    1.8079912 0.0030783725    65.247207    9007.3919 
 3755000   -200674.35    1.7344115 0.0025666904    65.331459    9020.1927 
 3760000   -200527.82    1.7853314 -0.0039993843    65.339225    9032.9811 
 3765000   -200817.63    1.7476641 0.00070808379     65.22853    9045.7452 
 3770000   -200827.01    1.7414746 -1.7639969e-05    65.267955    9058.5371 
 3775000   -200739.15    1.7835073 -0.0018390776    65.242371    9071.3618 
 3780000   -200631.61    1.7765048 0.00075129255    65.373018    9084.1066 
 3785000   -200715.33    1.7481133 -0.0033280622    65.377042    9096.8252 
 3790000   -200923.16    1.7623694 -0.0020761986     65.28444    9109.5787 
 3795000   -200690.35    1.8188329 -0.000844441    65.307653    9122.3093 
 3800000   -200751.46    1.7721005 -0.0033344274    65.236997    9135.1119 
 3805000   -200871.53    1.7528237 -0.00045993654    65.172977    9147.8545 
 3810000   -200950.33    1.7025924 -0.006454855    65.293935    9160.6164 
 3815000   -200711.44    1.7385019 0.0016316765    65.273185       9173.4 
 3820000   -200664.87    1.7891693 -0.003740263      65.2577    9186.1331 
 3825000   -200897.94    1.8346592 0.0014888229    65.231943     9198.916 
 3830000   -200814.37     1.772712 0.0033117431    65.199961    9211.7033 
 3835000   -200914.59    1.7546227 2.5159013e-05    65.210579    9224.5013 
 3840000   -200900.78    1.7081798 0.00085155516    65.268944    9237.3182 
 3845000   -200778.64    1.7778497 -0.0026760936    65.319304    9250.0753 
 3850000   -200822.13    1.7441307 -0.0057163125     65.35115     9262.832 
 3855000   -200992.79    1.7291935 -0.00040351729    65.266615    9275.5811 
 3860000   -200980.01    1.7415489 0.0033942064    65.239506    9288.3596 
 3865000   -200840.74    1.8219161 0.00070863142    65.334849    9301.1128 
 3870000   -200831.81    1.7705132 -0.0014249488    65.307075    9313.8504 
 3875000   -200680.32    1.7330085 -0.00069992065    65.343641     9326.607 
 3880000   -200813.86    1.7367579 0.0011428208    65.246612    9339.3577 
 3885000    -200720.8     1.778252 -0.005119576    65.392235    9352.0898 
 3890000   -200698.75    1.7567366 0.00038394542    65.379777    9364.8259 
 3895000   -200698.22    1.7937396 0.0022257312    65.330069    9377.5914 
 3900000    -200839.3    1.7797298 0.0013750633    65.190104    9390.3165 
 3905000   -200760.36     1.748644 0.0055729892    65.192557    9403.0993 
 3910000   -200845.39    1.7539217 -0.00046874004    65.342299    9415.8441 
 3915000   -200792.97     1.785377 -0.00013021999    65.196595    9428.6118 
 3920000   -200682.41    1.7462412 0.0011214674    65.190046     9441.407 
 3925000   -200677.91    1.7543889 0.0047992213    65.236593    9454.1687 
 3930000   -200877.84    1.7587744 -0.0032716222    65.205317    9466.9515 
 3935000   -200804.77     1.766984  0.001803723    65.123006     9479.711 
 3940000    -201007.4    1.7234484  0.007993877    65.099207    9492.4825 
 3945000   -200852.56    1.7326729 -0.0030511307    65.258501    9505.2479 
 3950000   -200803.86    1.8134947 2.6320585e-05    65.172308    9518.0166 
 3955000   -200541.23    1.6709977  0.002983012    65.159533    9530.8259 
 3960000   -200701.86    1.7442256 -0.0034174633    65.202412    9543.5802 
 3965000   -200896.31    1.7107178 -0.002473575    65.178507    9556.3783 
 3970000   -200742.81    1.7972127 0.0019328322    65.175129    9569.1286 
 3975000   -200797.58    1.6998036 0.0027854171     65.15767    9581.9187 
 3980000   -200769.84    1.7371623  0.001648457    65.215848    9594.7193 
 3985000   -200792.93    1.7771393 -0.00069556237    65.267351    9607.4784 
 3990000   -200580.45    1.8492989 -0.0039450108     65.33839    9620.2545 
 3995000   -200671.29    1.7963933  0.005934358    65.220799    9632.9783 
 4000000   -200731.42    1.7808186 -0.0034864605    65.480666    9645.7537 
 4005000    -200827.1    1.7303847 -0.0013164887    65.374906    9658.4517 
 4010000   -200666.83     1.778951 0.00028407861    65.345156    9671.1777 
 4015000   -200652.96    1.7189433 0.0036794381    65.231975    9683.9869 
 4020000    -200553.4    1.7868743 -0.0073640153    65.467603    9696.7822 
 4025000   -200740.08    1.7710648 0.0023162292    65.196747    9709.5248 
 4030000   -200649.79    1.7633653 -0.00088444146    65.240924    9722.2973 
 4035000   -200819.87    1.7498785 -0.0021772254    65.226026     9735.085 
 4040000   -200666.38    1.7396939 -0.0065159629    65.272393    9747.8707 
 4045000   -200553.94    1.7505495 -0.0054218693    65.365158    9760.6529 
 4050000    -200600.4    1.7615006 -0.0025499285    65.239799    9773.4313 
 4055000   -200758.27    1.7414393 0.0024257606    65.180558    9786.2034 
 4060000   -200797.83    1.7898501 0.0018533401    65.103565    9798.9439 
 4065000   -200966.93    1.7455975 -0.0048962176    65.107463    9811.7422 
 4070000   -200914.67    1.7637384 0.00011399232    64.996078    9824.5459 
 4075000   -200861.33     1.796268 -0.0022207058    65.157241    9837.3621 
[...]
 9085000   -200638.58    1.7959811 -0.0030887154    65.405229    22649.682 
 9090000    -200834.5    1.7572909 -0.0017707131    65.359379    22662.435 
 9095000   -200823.43    1.7546525 0.0032906025    65.251076    22675.198 
 9100000   -200919.83    1.7641984 0.0048843973    65.219248    22688.017 
 9105000    -200952.1    1.7621937 0.0060451454    65.156994    22700.811 
 9110000   -200809.46    1.7500479 -0.001366752    65.231919    22713.599 
 9115000   -200937.13    1.7503119 -0.00087119471    65.229723     22726.39 
 9120000   -200791.88    1.7584559 -0.003237027    65.235429     22739.21 
 9125000   -200807.73    1.7277118 0.0040039601    65.201037    22751.982 
 9130000   -200692.21    1.7392109 -0.0034500643    65.387919    22764.825 
 9135000   -200638.62    1.7845163 -0.0011464353    65.419081    22777.587 
 9140000    -200934.2    1.7677783 -0.0019573935    65.386286    22790.369 
 9145000   -200726.98    1.7644655 0.0039675604    65.322999    22803.131 
 9150000   -200444.87     1.750912 -0.0020042649    65.455242    22815.912 
 9155000   -200708.38     1.741217 0.0028845648    65.264687    22828.682 
 9160000   -200774.33    1.7743417 -0.0022136459    65.332675    22841.438 
 9165000   -200908.61    1.7471878 -0.0012216232    65.356015    22854.227 
 9170000   -200678.11     1.724268 -0.0011051216    65.254051    22867.008 
 9175000   -200678.62     1.783045 0.0027821382    65.196862    22879.781 
 9180000   -200701.67    1.7834201 0.00029795583    65.235481    22892.534 
 9185000   -200555.94    1.7200941 0.00044041067    65.240646    22905.363 
 9190000   -200676.81    1.7683797 0.0028952581    65.247796    22918.196 
 9195000   -200791.89    1.7698506 -0.0010119845     65.30653    22930.981 
 9200000   -200920.56    1.7931952 -0.0017787198    65.332525    22943.792 
 9205000   -200739.15    1.7949918  0.001774617    65.292421    22956.561 
 9210000    -200712.3    1.7784028 -0.0047295674      65.5051    22969.356 
 9215000   -200895.49    1.7620765 -0.0011170119    65.386438    22982.156 
 9220000   -200727.49    1.7478337 0.0062993968    65.271224    22994.913 
 9225000   -200805.58    1.7814884 0.00085538386    65.397695    23007.665 
 9230000   -200764.07    1.7699233 -0.0023343457    65.386881     23020.45 
 9235000   -200613.87    1.7538505 0.0028860699    65.283818    23033.206 
 9240000   -200894.08    1.7267101 0.0028377178    65.173397    23045.976 
 9245000   -200755.81     1.701695 -0.0014267365    65.299728    23058.731 
 9250000   -200706.26     1.773752 -0.0040034819    65.391394    23071.518 
 9255000    -200822.9    1.7648547 -0.0062588128    65.306009    23084.309 
 9260000   -200946.93    1.7369473 -0.0032684881    65.360069    23097.068 
 9265000   -200900.52    1.7495044 0.0037440964    65.322692    23109.832 
 9270000   -200829.12    1.7854637 -0.00053563256    65.297183    23122.587 
 9275000   -200801.01    1.8007208 0.0024706399    65.326832    23135.371 
 9280000   -201028.23    1.7217861  0.002705218    65.259101    23148.146 
 9285000   -200736.69    1.7953379 0.0034646898    65.176241    23160.933 
 9290000   -200688.87    1.7370096 0.0012012037    65.255687    23173.703 
 9295000   -200914.92    1.7618319 0.0044130769    65.202247    23186.454 
 9300000   -200775.94    1.8291716  0.002463412    65.249496    23199.278 
 9305000      -200732    1.7324766 -0.00077537147    65.195618    23212.053 
 9310000   -200857.91    1.7456734 -0.0077258117    65.325706    23224.833 
 9315000   -200769.85    1.7724541 -0.0040852549    65.270143      23237.6 
 9320000    -200667.4    1.7963661 -0.002363302    65.231557    23250.423 
 9325000   -200642.41    1.7258734 -0.00017466171    65.192355    23263.236 
 9330000   -200595.32     1.726234 0.0032260473    65.199863    23276.067 
 9335000   -200874.08    1.7556164 -0.0027699485    65.273744    23288.852 
 9340000   -200788.49    1.7345174 -0.0047906852    65.302753    23301.674 
 9345000   -200638.58    1.7868864 -0.0033511144    65.236504    23314.435 
 9350000    -200717.3    1.7343417 -0.0047829975    65.234043    23327.196 
 9355000   -200818.46    1.7418676 0.0023965327    65.142069     23339.99 
 9360000   -200616.15    1.7452251 0.00053914639    65.268744    23352.773 
 9365000   -200760.65    1.7782779 -0.0051632712    65.259913    23365.565 
 9370000   -201012.29    1.7450565 0.0002744165    65.132488    23378.366 
 9375000   -200858.47    1.7684415 0.0035086652    65.049056    23391.161 
 9380000   -200798.06    1.7593972 -0.00030019337    65.085695    23403.943 
 9385000   -200608.48    1.7340938 -0.00012718025     65.17744     23416.74 
 9390000   -200478.05     1.763472 -0.0014150119    65.261772    23429.508 
 9395000   -200639.34    1.7770414 -0.00081261178     65.24789    23442.266 
 9400000   -200620.84    1.7179117 -0.0041753107    65.246998    23455.006 
 9405000    -200817.9    1.7599858 0.0060962073    65.090424    23467.804 
 9410000   -200814.77    1.7403977 -0.0024784915     65.28251    23480.539 
 9415000   -200813.17    1.7740227 -0.00017578297    65.244965    23493.305 
 9420000   -200676.13    1.7774255 0.0023501811    65.249846    23506.096 
 9425000   -200542.63     1.731053 -0.0021415592    65.347145    23518.877 
 9430000   -200519.72    1.8091954 0.0016174902    65.287863    23531.677 
 9435000   -200629.81    1.7309103 0.00087653992    65.260048    23544.449 
 9440000   -200703.95     1.824642 0.0058380375    65.151069    23557.242 
 9445000   -200878.75    1.7107016 -0.0038264691     65.23556    23569.995 
 9450000   -200804.47    1.7315164 -0.0067479853     65.31849    23582.797 
 9455000   -200665.15    1.7736088 0.0061122023    65.168496    23595.562 
 9460000   -200916.85    1.7448478 -0.0010183627    65.213535    23608.322 
 9465000   -200779.97    1.7544484 0.0022645708    65.081787    23621.079 
 9470000   -200876.05    1.7135802 0.0004643824    65.086399    23633.885 
 9475000   -200795.92    1.7363629 -0.0013966385    65.129179    23646.698 
 9480000   -200801.01    1.7735482 0.0019593891    65.035725    23659.486 
 9485000   -200576.11    1.7076895 -0.00078718255    65.132602    23672.257 
 9490000    -200784.1    1.7707099 -0.003622629     65.19676    23685.057 
 9495000   -200590.08    1.7212753 -0.0025827282    65.211536    23697.826 
 9500000   -200499.18      1.70471 -0.0012425758    65.193317    23710.637 
 9505000   -200502.51    1.7551334 -0.0034862138    65.100738    23723.468 
 9510000   -200649.88    1.7077544 -0.001224447    65.110952    23736.274 
 9515000   -200740.55    1.7565323 -0.0027898718    65.129157    23749.075 
 9520000   -200631.27    1.7896241 0.0093106329    65.053832    23761.864 
 9525000    -200779.1    1.7783358  0.001800781    65.178349    23774.701 
 9530000   -200659.03     1.743317 -0.0022617655    65.197823    23787.516 
 9535000   -200660.62    1.7778351 0.00057123118    65.229577    23800.354 
 9540000   -200657.22    1.7904265 0.0021748884    65.208132     23813.14 
 9545000   -200619.79    1.7958785 0.0012279832    65.165437    23825.917 
 9550000   -200760.75    1.7677824 -0.0019313711    65.203903    23838.702 
 9555000   -200636.29    1.7061372 -0.0044654455     65.24615    23851.484 
 9560000   -200886.72    1.7826032 0.0016300763    65.043413    23864.261 
 9565000   -200759.68    1.7663887 0.0012463608    65.126776     23877.05 
 9570000   -200643.82    1.8062948 -0.0023143453    65.209988    23889.909 
 9575000   -200552.77    1.7361214 -0.0050992774     65.47136    23902.686 
 9580000    -200619.4    1.7614839 -0.0014169846    65.337848    23915.463 
 9585000   -200610.09    1.7827577 -0.00024149445    65.310392    23928.189 
 9590000    -200669.8    1.7522712 0.0035439897    65.190055    23940.956 
 9595000   -200752.74    1.7259844 -0.0045497549    65.292267    23953.718 
 9600000   -200478.62    1.7651426 -0.0061820502    65.379616    23966.516 
 9605000   -200610.74    1.7833317 -0.00083686569    65.199165    23979.278 
 9610000   -200601.62    1.7344675 0.00084561604    65.175621    23992.018 
 9615000   -200784.05    1.8091467 0.00041439958    65.156194    24004.797 
 9620000   -200634.87    1.7742625 -0.00024594491    65.186227    24017.556 
 9625000   -200506.73    1.7615007 -0.0005579028    65.212206    24030.354 
 9630000   -200802.15    1.7240325 0.0021074092    65.141127    24043.094 
 9635000   -200828.98    1.7077839 0.00061798301    65.249139    24055.874 
 9640000   -200649.94    1.7436268 0.0047898191    65.063893     24068.67 
 9645000   -200810.64    1.7897077 -0.0053082548     65.23246    24081.469 
 9650000   -200660.22    1.8016286 -0.0067423739    65.264291    24094.259 
 9655000   -200688.87     1.804994 -0.0012724027    65.237746    24107.078 
 9660000   -200834.64    1.7585518 -0.0026344046    65.185702    24119.879 
 9665000   -200791.92    1.8142302 0.0018291746    65.086073    24132.646 
 9670000   -200721.66    1.7602847 -0.00041036052    65.127206    24145.402 
 9675000    -200694.9     1.758357 -0.00080170931    65.181067    24158.159 
 9680000   -200612.69    1.7433779 -0.0066533638    65.337765     24170.92 
 9685000    -200718.4    1.7344587 -0.0025592023    65.291885    24183.722 
 9690000   -200453.36    1.6958867 0.00093800359    65.272637    24196.491 
 9695000   -200590.44    1.7762044 2.343831e-05    65.133447    24209.241 
 9700000   -200743.83    1.7623609 0.0022791325    65.100199    24222.036 
 9705000   -200793.54    1.7600899 6.2406058e-05    65.112266    24234.838 
 9710000   -200702.74    1.7818391 -0.0018960615    65.128836    24247.605 
 9715000   -200849.04    1.7140454 -0.00054370982    65.098897    24260.386 
 9720000   -200762.32    1.7593397 -0.0027940425    65.069353    24273.202 
 9725000   -200760.51    1.6925332 0.00074568996    65.006249    24286.003 
 9730000   -200877.87    1.7595367 -0.0028082252     65.07535     24298.83 
 9735000   -200719.51    1.7469556  0.004479391    64.908934    24311.624 
 9740000   -200782.64     1.742341 0.0012335498    65.005124     24324.47 
 9745000    -200962.1    1.7010066 -0.0026873099    65.027818    24337.266 
 9750000   -200843.91    1.7692416 -0.002190031    65.023618    24350.101 
 9755000   -200862.13    1.7716014 0.0016084639    65.044064    24362.927 
 9760000   -200878.01    1.7271579 0.0025901307    64.982443    24375.766 
 9765000   -200796.87    1.7616278  0.002494294    64.961767    24388.644 
 9770000   -200483.03    1.7180976 -0.0010938826    65.051135    24401.459 
 9775000   -200434.07    1.7549516 0.0025015348    64.996145    24414.235 
 9780000   -200622.58    1.7786716 0.0036285883    64.968242    24427.052 
 9785000   -200606.97    1.8036101 0.0029145822    65.038918    24439.872 
 9790000   -200632.24    1.7640233 0.0020743542    65.022135    24452.722 
 9795000   -200597.84    1.7524069 -0.0036133029    65.108558    24465.527 
 9800000   -200594.68    1.7644978 -0.00068018907    65.084184    24478.308 
 9805000   -200619.43    1.7976793 -0.0045136092    65.130301    24491.087 
 9810000   -200571.56    1.7434189 -0.0019893373       65.142    24503.891 
 9815000   -200745.29    1.8236597 -0.00076472371    65.107282    24516.687 
 9820000   -200797.37    1.7947692 0.0013427964    65.008155    24529.487 
 9825000   -200739.04    1.7161612 0.00020800083    65.069329    24542.301 
 9830000   -200801.95    1.7108165 -2.5006162e-05    65.040214    24555.184 
 9835000   -200945.99    1.7779536  0.003270279    65.075099    24567.988 
 9840000   -200826.17    1.7277398 0.00038766647    65.099836    24580.798 
 9845000   -200808.42    1.7114243 -7.254059e-05    65.070395    24593.575 
 9850000   -200727.08     1.716044 -0.0014521532    65.103971    24606.385 
 9855000   -200740.69    1.6886353 -0.00096789546    65.161078    24619.178 
 9860000   -200750.94    1.8310129 0.0014292357    65.142174    24631.927 
 9865000   -200758.65    1.7397314 0.0012946802       65.171    24644.719 
 9870000   -201083.22    1.7739956 -0.0014667942    65.252324    24657.513 
 9875000   -200603.86    1.7816273 -0.00039856178      65.3138    24670.275 
 9880000   -200646.89     1.727937   0.00300322    65.199622    24683.029 
 9885000   -201025.24    1.7824057 0.0065493434    65.035019    24695.826 
 9890000   -200751.71    1.7339344 0.0011289451    65.168483    24708.597 
 9895000   -200686.19     1.741299 0.0034019465    65.226935    24721.362 
 9900000   -200730.21    1.7417492 0.0017086169    65.178884    24734.164 
 9905000    -200751.7    1.8016287 -0.0017837881    65.191848     24746.96 
 9910000   -200689.86    1.7578498 -0.0020704947     65.16458    24759.739 
 9915000   -200630.89    1.7685396 -0.0013150455    65.127882     24772.52 
 9920000   -200630.06    1.7641731 -0.0041838338    65.256506    24785.282 
 9925000   -200685.38    1.7377969 0.0065261706    65.128842    24798.058 
 9930000   -200791.66    1.7359494 0.0041513256    65.095139     24810.82 
 9935000   -200631.35    1.7883318 0.0036334598    65.203566    24823.632 
 9940000   -200682.28    1.7423475 0.0022497571    65.302184    24836.397 
 9945000    -200495.9     1.798819 -0.001083736    65.395116     24849.13 
 9950000   -200579.48     1.741717 -0.0031909182    65.398997    24861.869 
 9955000   -200536.71    1.7654276 0.00095855009    65.345033    24874.605 
 9960000   -200621.35    1.7735171 0.0031870949    65.164443    24887.355 
 9965000   -200626.82    1.7291026 -0.0040878988    65.313655    24900.133 
 9970000   -200683.11    1.7041013 -0.0023241364    65.239007    24912.911 
 9975000    -200845.4    1.7315435 -0.002218793    65.230643    24925.701 
 9980000   -200832.95    1.7314842 -0.00090415412    65.181761    24938.486 
 9985000   -200930.78    1.7751034 -0.001466771    65.173771    24951.279 
 9990000   -200885.34    1.7894844 0.0021284184    65.150041    24964.062 
 9995000   -200907.24    1.7652242 0.0026267407    65.121108    24976.842 
10000000   -200830.73    1.7879225 -0.0013583309    65.200966    24989.618 
10005000   -200788.85    1.7543236 0.0055008409    65.020976    25002.399 
10010000   -200923.35    1.7169731 -0.00066177499    65.191417    25015.201 
10015000   -200900.76    1.8005781 0.0050178624    65.120815    25027.957 
10020000   -200773.87    1.7232677 0.0021669403    65.230076    25040.746 
10025000   -200890.84    1.7377712 0.00011964823    65.141638    25053.523 
10030000   -200786.41    1.7444386 0.0027053502    65.109147    25066.304 
10035000   -200570.07    1.7815942 0.0043367932    65.240804    25079.112 
10040000   -200722.93    1.8143804 0.0023921722    65.230093     25091.89 
10045000   -200638.24    1.7293162 -0.0014189433    65.326018    25104.677 
10050000   -200744.72     1.768006 -0.0047894278    65.363609     25117.46 
10055000   -200977.75    1.7029598 -0.0015235843    65.282798    25130.261 
10060000   -200831.29    1.7648399 -0.00063985421    65.178027    25143.029 
10065000   -200877.88    1.7278354 0.0010808952    65.136626    25155.821 
10070000    -200844.1    1.7331738 -0.0029043448    65.219871    25168.603 
10075000    -200815.3      1.77019 -0.00069938908    65.149918    25181.374 
10080000   -200742.69    1.7794778 0.00080487006    65.212062    25194.164 
10085000   -200718.01    1.7606021 -0.0023356184    65.252785    25206.962 
10090000   -200666.06    1.6999516 -0.0026762689     65.20285    25219.765 
10095000   -200855.46    1.7498019 -0.0020462608     65.16224     25232.57 
10100000   -200826.79      1.75582  0.002170089    65.048026    25245.348 
10105000   -200757.81     1.733805 -0.0023416592    65.060119     25258.17 
10110000   -200812.49    1.7158445 0.0016699071     65.07056    25270.952 
10115000   -200699.96    1.7573763 -0.0041796188    65.121183    25283.805 
10120000   -200743.98    1.7014496 0.0045863248    65.101216    25296.609 
10125000   -200701.37    1.7379903 0.0031834866     64.97817    25309.398 
10130000   -200832.62     1.770219 0.0039873498    64.960076    25322.179 
10135000   -200695.95    1.7247577 -0.00029867155    65.134376    25334.937 
10140000   -200650.98    1.8341856 -0.0051537648    65.095817    25347.715 
10145000   -200712.56    1.7778635 0.00089176172    65.064404     25360.52 
10150000    -200546.8     1.711101 -0.00067841184    65.172113    25373.324 
10155000   -200708.96    1.7996424 0.00038743836    65.069857     25386.11 
10160000   -200711.22    1.8130172 0.00017337206    65.090679    25398.888 
10165000   -200850.49     1.683927 -0.0049301301    65.085815    25411.672 
10170000   -200860.48    1.7650463 -0.001765145    65.111085    25424.473 
10175000   -200608.49    1.7404285 -0.001546296    65.194162    25437.305 
10180000    -200826.4    1.7500447 0.0043755772    64.998882    25450.115 
10185000   -200825.21    1.7286088 -0.00027946386    65.115569    25462.876 
10190000   -200722.65    1.7768634 -0.0030692624    65.182138    25475.697 
10195000   -200836.76    1.7678489 0.00087813212     65.12836    25488.496 
10200000   -200672.19    1.7243646 -0.0046167815    65.134699    25501.278 
10205000   -200791.61    1.7217643 -0.0019655744    65.166733    25514.094 
10210000   -200882.76    1.7087286 -0.0058083396    65.256695    25526.838 
10215000   -200907.07    1.7628629 0.0030176554     65.05531    25539.603 
10220000   -200917.67    1.7217109 -0.00016649633    65.201424    25552.431 
10225000   -201008.16    1.7715812 0.0039643354    65.124471    25565.164 
10230000   -200793.24    1.7542825 -0.00068295546    65.287094    25577.962 
10235000   -200774.17    1.7817515 -0.0036604651    65.310504    25590.721 
10240000   -200972.74    1.7955437 0.0019399735    65.173172    25603.488 
10245000   -200836.81    1.8024034 -0.00028416345    65.187841    25616.242 
10250000   -200753.43    1.7764216 0.0048654499    65.002342    25629.005 
Loop time of 25629 on 8 procs for 10000000 steps with 2304 atoms

Performance: 33711.805 tau/day, 390.183 timesteps/s
95.6% CPU use with 8 MPI tasks x 1 OpenMP threads

MPI task timing breakdown:
Section |  min time  |  avg time  |  max time  |%varavg| %total
---------------------------------------------------------------
Pair    | 4166.9     | 4446.5     | 4766.4     | 299.1 | 17.35
Bond    | 0.97595    | 1.1724     | 1.3544     |  12.8 |  0.00
Kspace  | 10822      | 10944      | 11062      |  96.7 | 42.70
Neigh   | 657.15     | 671.7      | 692.85     |  52.1 |  2.62
Comm    | 1012.2     | 1024.1     | 1036       |  21.7 |  4.00
Output  | 0.87014    | 0.90136    | 1.115      |   8.5 |  0.00
Modify  | 6408.5     | 7841.2     | 8500.6     | 911.4 | 30.59
Other   |            | 699.1      |            |       |  2.73

Nlocal:        288.000 ave         297 max         270 min
Histogram: 1 0 0 0 0 1 2 1 1 2
Nghost:        5977.62 ave        6003 max        5947 min
Histogram: 1 0 1 0 2 0 2 0 1 1
Neighs:         0.00000 ave           0 max           0 min
Histogram: 8 0 0 0 0 0 0 0 0 0
FullNghs:      245732.0 ave      254188 max      229486 min
Histogram: 1 0 0 0 0 1 2 2 0 2

Total # of neighbors = 1965852
Ave neighs/atom = 853.23438
Ave special neighs/atom = 0.0000000
Neighbor list builds = 81731
Dangerous builds = 0

## ----- deletion for small NPs and salt ----- ##
#    reset_timestep 0

#    label checking

#    compute     peatom    all   pe/atom
#    variable    exppe    atom    exp(2*c_peatom/${ttemp})
#    compute     aveS    small   reduce ave v_exppe
#    compute     aveCl   anion   reduce ave v_exppe
#    compute     aveNa   cation  reduce ave v_exppe

#    fix AVE all ave/time 5 ${repeat} ${freq} c_aveS c_aveCl file average.dat
#    thermo 10000
#    thermo_style custom step pe c_press lx cpu
#    thermo_modify norm no flush yes
#    fix AVE all ave/time 1 ${repeat} ${freq} c_aveS c_aveCl c_aveNa
#    variable    chempNP equal ${ttemp}*(ln(v_numS/vol)+ln(v_numCl/vol)*25+ln(f_AVE[1])+ln(f_AVE[2])*25)
#    variable    chempS  equal ${ttemp}*(ln(v_numNa/vol)+ln(v_numCl/vol)+ln(f_AVE[2])+ln(f_AVE[3]))
#    timestep 0.0005
#    run ${freq}

#    print "done! ChempNP= ${chempNP}" append potential.dat
Total wall time: 7:27:51
