LAMMPS (27 Oct 2021)
OMP_NUM_THREADS environment is not set. Defaulting to 1 thread. (src/comm.cpp:98)
  using 1 OpenMP thread(s) per MPI task
package gpu 0
package gpu 2 neigh no pair/only on
#Lammps gcmc code for electrolytes

## ----- Simulation times ----- ##
    variable t_nve      equal 50000             #nve/limit
    variable t_deform 	equal 50000            #nvt
    variable t_pressed 	equal 50000            #nvt
    variable t_relaxed 	equal 100000            #nvt
    variable t_eq 	equal 10000000           #nvt

    variable smallc	equal 10
    variable bigc	equal -80
    variable numB	equal 256
    variable numS	equal ${numB}*8
    variable numS	equal 256*8
#    variable numCl	equal ${numS}*${smallc}+${bigc}*${numB}

## ----- Environment setting ----- ##
    boundary p p p
    atom_style full

## ----- System Variables  ----- ##
    variable    ttemp       equal   $b          	#reduced temperature
    variable    ttemp       equal   1.70          	
    variable    ppress      equal   0			#osmetic pressure
    variable    cutoff_pppm equal   27.8	        #cutoff for the real part of pppm
    variable	ipress      equal   0.1

    variable    bigd        equal   10                      #LJ sigmas
    variable    smalld      equal   2
#    variable    Cl_d        equal   0.4
    variable    d_bs        equal   0.5*(${bigd}+${smalld})
    variable    d_bs        equal   0.5*(10+${smalld})
    variable    d_bs        equal   0.5*(10+2)
#    variable    d_sNa       equal   0.5*(v_smalld+v_Na_d)
#    variable    d_sCl       equal   0.5*(v_smalld+v_Cl_d)
#    variable    d_bNa       equal   0.5*(v_bigd+v_Na_d)
#    variable    d_bCl       equal   0.5*(v_bigd+v_Cl_d)
#    variable    d_NaCl      equal   0.5*(v_Na_d+v_Cl_d)

    variable    cut_small   equal   ${smalld}*1.122462	    #cutoffs for LJ
    variable    cut_small   equal   2*1.122462	    
    variable    cut_big     equal   ${bigd}*1.122462
    variable    cut_big     equal   10*1.122462
#    variable    cut_Na_d    equal   ${Na_d}*1.122462
#    variable    cut_Cl_d    equal   ${Cl_d}*1.122462
    variable    cut_bs      equal   ${d_bs}*1.122462
    variable    cut_bs      equal   6*1.122462
#    variable    cut_bNa     equal   ${d_bNa}*1.122462
#    variable    cut_bCl     equal   ${d_bCl}*1.122462
#    variable    cut_sNa     equal   ${d_sNa}*1.122462
#    variable    cut_sCl     equal   ${d_sCl}*1.122462
#    variable    cut_NaCl    equal   ${d_NaCl}*1.122462

## ----- Initialization and grouping ----- ##
    read_data config_fcc8.dat
Reading data file ...
  orthogonal box = (-80.000000 -80.000000 -80.000000) to (80.000000 80.000000 80.000000)
  2 by 2 by 2 MPI processor grid
  reading atoms ...
  2304 atoms
Finding 1-2 1-3 1-4 neighbors ...
  special bond factors lj:    0        0        0       
  special bond factors coul:  0        0        0       
     0 = max # of 1-2 neighbors
     0 = max # of 1-3 neighbors
     0 = max # of 1-4 neighbors
     1 = max # of special neighbors
  special bonds CPU = 0.015 seconds
  read_data CPU = 0.026 seconds

    set type 1 charge   ${bigc}    	#large NPs
    set type 1 charge   -80    	
Setting atom values ...
  256 settings made for charge
    set type 2 charge   ${smallc}       #small NPs
    set type 2 charge   10       
Setting atom values ...
  2048 settings made for charge
#    set type 3 charge   1       #Na+
#    set type 3 charge   -1      #Cl-

    mass    *   0.2
    mass    1   25.0

    group big       type 1
256 atoms in group big
    group small     type 2
2048 atoms in group small
#    group cation    type 3
#    group anion     type 3

## ----- Interaction setting ----- ##
    pair_style lj/cut/coul/long ${cut_big} ${cutoff_pppm} #lj/cut/coul/long/soft 2.0 0.5 5.0 ${cut_small} ${cutoff_pppm}
    pair_style lj/cut/coul/long 11.22462 ${cutoff_pppm} 
    pair_style lj/cut/coul/long 11.22462 27.8 
    #Between regular particles (4*5/2=10)
    pair_coeff  1   1   2.0     ${bigd}     ${cut_big}	        # big-big
    pair_coeff  1   1   2.0     10     ${cut_big}	        
    pair_coeff  1   1   2.0     10     11.22462	        
    pair_coeff  2   2   2.0     ${smalld}   ${cut_small}	    # small-small
    pair_coeff  2   2   2.0     2   ${cut_small}	    
    pair_coeff  2   2   2.0     2   2.244924	    
#    pair_coeff  3   3   2.0     ${Na_d}     ${cut_Na_d}		    # Na-Na
#    pair_coeff  3   3   2.0     ${Cl_d}     ${cut_Cl_d}       	# Cl-Cl
    pair_coeff  1   2   2.0     ${d_bs}     ${cut_bs}	        # big-small
    pair_coeff  1   2   2.0     6     ${cut_bs}	        
    pair_coeff  1   2   2.0     6     6.734772	        
#    pair_coeff  1   3   2.0     ${d_bNa}    ${cut_bNa}	        # big-Na
#    pair_coeff  1   3   2.0     ${d_bCl}    ${cut_bCl}	        # big-Cl
#    pair_coeff  2   3   2.0     ${d_sNa}    ${cut_sNa}       	# small-Na
#    pair_coeff  2   3   2.0     ${d_sCl}    ${cut_sCl}       	# small-Cl
#    pair_coeff  3   4   2.0     ${d_NaCl}   ${cut_NaCl}       	# Na-Cl
#    pair_modify pair lj/cut/coul/long shift yes
    pair_modify shift yes
    kspace_style	pppm	5.0e-4

## ----- Simulation setup ----- ##
    neighbor 1.2 bin
    neigh_modify delay 0 every 1 check yes #one 2000

    compute temp all temp
    compute press all pressure temp

    thermo 5000
    thermo_style custom step pe temp c_press lx cpu
    thermo_modify norm no flush yes

   # dump moldump all custom 50000 ${xyzname} id type q x y z

## ----- Thermalization of system ----- ##
    timestep 0.0002

    fix 1 all nve/limit 0.05
    fix 2 big langevin ${ttemp} ${ttemp} 0.2 1234567
    fix 2 big langevin 1.7 ${ttemp} 0.2 1234567
    fix 2 big langevin 1.7 1.7 0.2 1234567
    fix 3 small langevin ${ttemp} ${ttemp} 0.008 123456
    fix 3 small langevin 1.7 ${ttemp} 0.008 123456
    fix 3 small langevin 1.7 1.7 0.008 123456

    fix freeze big setforce 0.0 0.0 0.0
    fix zeromom all momentum 1 linear 1 1 1 angular
    run ${t_nve}
    run 50000

CITE-CITE-CITE-CITE-CITE-CITE-CITE-CITE-CITE-CITE-CITE-CITE-CITE

Your simulation uses code contributions which should be cited:

- GPU package (short-range, long-range and three-body potentials):

@Article{Brown11,
 author = {W. M. Brown, P. Wang, S. J. Plimpton, A. N. Tharrington},
 title = {Implementing Molecular Dynamics on Hybrid High Performance Computers - Short Range Forces},
 journal = {Comp.~Phys.~Comm.},
 year =    2011,
 volume =  182,
 pages =   {898--911}
}

@Article{Brown12,
 author = {W. M. Brown, A. Kohlmeyer, S. J. Plimpton, A. N. Tharrington},
 title = {Implementing Molecular Dynamics on Hybrid High Performance Computers - Particle-Particle Particle-Mesh},
 journal = {Comp.~Phys.~Comm.},
 year =    2012,
 volume =  183,
 pages =   {449--459}
}

@Article{Brown13,
 author = {W. M. Brown, Y. Masako},
 title = {Implementing Molecular Dynamics on Hybrid High Performance Computers – Three-Body Potentials},
 journal = {Comp.~Phys.~Comm.},
 year =    2013,
 volume =  184,
 pages =   {2785--2793}
}

@Article{Trung15,
 author = {T. D. Nguyen, S. J. Plimpton},
 title = {Accelerating dissipative particle dynamics simulations for soft matter systems},
 journal = {Comput.~Mater.~Sci.},
 year =    2015,
 volume =  100,
 pages =   {173--180}
}

@Article{Trung17,
 author = {T. D. Nguyen},
 title = {GPU-accelerated Tersoff potentials for massively parallel Molecular Dynamics simulations},
 journal = {Comp.~Phys.~Comm.},
 year =    2017,
 volume =  212,
 pages =   {113--122}
}

@Article{Nikolskiy19,
 author = {V. Nikolskiy, V. Stegailov},
 title = {GPU acceleration of four-site water models in LAMMPS},
 journal = {Proceeding of the International Conference on Parallel Computing (ParCo 2019), Prague, Czech Republic},
 year =    2019
}

CITE-CITE-CITE-CITE-CITE-CITE-CITE-CITE-CITE-CITE-CITE-CITE-CITE

PPPM initialization ...
  using 12-bit tables for long-range coulomb (src/kspace.cpp:340)
  G vector (1/distance) = 0.11438956
  grid = 60 60 60
  stencil order = 5
  estimated absolute RMS force accuracy = 0.00041211524
  estimated relative force accuracy = 0.00041211524
  using double precision KISS FFT
  3d grid and FFT values/proc = 42875 28800
  generated 0 of 1 mixed pair_coeff terms from geometric mixing rule
Neighbor list info ...
  update every 1 steps, delay 0 steps, check yes
  max neighbors/atom: 2000, page size: 100000
  master list distance cutoff = 29
  ghost atom cutoff = 29
  binsize = 14.5, bins = 12 12 12
  1 neighbor lists, perpetual/occasional/extra = 1 0 0
  (1) pair lj/cut/coul/long/gpu, perpetual
      attributes: full, newton off
      pair build: full/bin
      stencil: full/bin/3d
      bin: standard
Per MPI rank memory allocation (min/avg/max) = 11.45 | 11.54 | 11.62 Mbytes
Step PotEng Temp c_press Lx CPU 
       0 1.7992005e+08            0    175.78446          160            0 
    5000   -68402.728    1.5164301 -0.0043056679          160    39.559679 
   10000   -73948.967    1.5861198 -0.0043107575          160    78.961196 
   15000   -78461.228    1.4817673 -0.0044234975          160    118.27982 
   20000   -82522.505    1.5559858 -0.0043480726          160    157.62523 
   25000   -86289.354    1.5361415 -0.0044961421          160    197.00094 
   30000   -89787.077    1.5203501 -0.0044916695          160    236.43916 
   35000   -93054.298    1.5314578 -0.004221301          160    275.83103 
   40000    -95955.25    1.5403189 -0.0042405005          160    315.32917 
   45000   -98614.922    1.5541106 -0.0042191413          160    354.81593 
   50000   -101185.64    1.5014805 -0.0040933265          160    394.33065 
Loop time of 394.331 on 8 procs for 50000 steps with 2304 atoms

Performance: 2191.054 tau/day, 126.797 timesteps/s
99.6% CPU use with 8 MPI tasks x 1 OpenMP threads

MPI task timing breakdown:
Section |  min time  |  avg time  |  max time  |%varavg| %total
---------------------------------------------------------------
Pair    | 9.4624     | 9.7932     | 10.129     |   9.0 |  2.48
Bond    | 0.0052771  | 0.0077741  | 0.009769   |   2.0 |  0.00
Kspace  | 377.78     | 378.47     | 378.94     |   2.0 | 95.98
Neigh   | 0.059416   | 0.066786   | 0.075146   |   2.1 |  0.02
Comm    | 2.4107     | 2.6706     | 3.0814     |  14.2 |  0.68
Output  | 0.00034268 | 0.00055    | 0.0019833  |   0.0 |  0.00
Modify  | 2.7794     | 2.8281     | 2.8928     |   2.4 |  0.72
Other   |            | 0.4968     |            |       |  0.13

Nlocal:        288.000 ave         313 max         260 min
Histogram: 2 0 0 0 1 2 1 0 0 2
Nghost:        1333.75 ave        1354 max        1305 min
Histogram: 1 0 1 1 0 1 1 0 1 2
Neighs:         0.00000 ave           0 max           0 min
Histogram: 8 0 0 0 0 0 0 0 0 0
FullNghs:      16565.0 ave       18933 max       14140 min
Histogram: 2 0 0 1 0 3 0 0 0 2

Total # of neighbors = 132520
Ave neighs/atom = 57.517361
Ave special neighs/atom = 0.0000000
Neighbor list builds = 72
Dangerous builds = 0

#    compute     peatom      all     pe/atom
#    variable    exppe       atom    exp(2*c_peatom/${ttemp})
#    compute     aveS        small   reduce ave v_exppe
#    compute     aveCl       anion   reduce ave v_exppe
#    compute     aveNa       cation  reduce ave v_exppe
#    thermo ${every}
#    thermo_style custom step pe temp lx vol c_aveS c_aveCl c_aveNa cpu
#    thermo_modify norm no flush yes
#    variable    chempNP     equal   temp*(ln(2304/vol)+ln(18300/vol)*10+ln(c_aveS)+ln(c_aveCl)*10)
#    variable    chempS      equal   temp*(ln(5500/vol)+ln(18300/vol)+ln(c_aveNa)+ln(c_aveCl))
#    label checking
#    run ${every}
#    if "${chempNP}>${mu_np}" then 'print "ChempNP=${chempNP}; expel"' "jump gcmc.in checking" else 'print "done!"'

    fix deforming all deform 10 x final -33 33 y final -33 33 z final -33 33 remap x
    run ${t_deform}
    run 50000
PPPM initialization ...
  using 12-bit tables for long-range coulomb (src/kspace.cpp:340)
  G vector (1/distance) = 0.11438956
  grid = 60 60 60
  stencil order = 5
  estimated absolute RMS force accuracy = 0.00041211524
  estimated relative force accuracy = 0.00041211524
  using double precision KISS FFT
  3d grid and FFT values/proc = 42875 28800
  generated 0 of 1 mixed pair_coeff terms from geometric mixing rule
Per MPI rank memory allocation (min/avg/max) = 11.45 | 11.54 | 11.62 Mbytes
Step PotEng Temp c_press Lx CPU 
   50000   -101185.64    1.5014805 -0.0040933265          160            0 
   55000   -107535.41    1.5905577 -0.0034471281        150.6    42.215884 
   60000   -114195.62    1.5242385 -0.0038958311        141.2    84.467147 
   65000   -121466.57    1.5205705 -0.0037388887        131.8    126.72604 
   70000   -129435.64    1.5112762 -0.0035342631        122.4    169.09053 
   75000   -137461.53    1.5322688 -0.0023279092          113    211.55523 
   80000   -146222.21    1.5641178 0.0010994019        103.6    254.03674 
   85000   -155026.96    1.4838802  0.010209294         94.2    296.59627 
   90000   -163681.52    1.5547008  0.031242323         84.8    339.26513 
   95000   -171910.99     1.581832  0.080789336         75.4    382.23466 
  100000   -181958.71    1.5581016   0.17235309           66    425.54991 
Loop time of 425.55 on 8 procs for 50000 steps with 2304 atoms

Performance: 2030.313 tau/day, 117.495 timesteps/s
99.6% CPU use with 8 MPI tasks x 1 OpenMP threads

MPI task timing breakdown:
Section |  min time  |  avg time  |  max time  |%varavg| %total
---------------------------------------------------------------
Pair    | 10.238     | 10.574     | 10.888     |   8.6 |  2.48
Bond    | 0.005669   | 0.0076998  | 0.0099392  |   1.6 |  0.00
Kspace  | 378.53     | 379.09     | 379.58     |   1.9 | 89.08
Neigh   | 0.78605    | 0.85552    | 0.93713    |   5.5 |  0.20
Comm    | 3.7736     | 4.1068     | 4.4354     |  11.0 |  0.97
Output  | 0.00042663 | 0.0053058  | 0.011768   |   5.3 |  0.00
Modify  | 25.392     | 27.888     | 30.232     |  34.0 |  6.55
Other   |            | 3.021      |            |       |  0.71

Nlocal:        288.000 ave         305 max         268 min
Histogram: 2 0 0 0 0 2 2 0 0 2
Nghost:        5828.88 ave        5869 max        5787 min
Histogram: 1 1 1 1 0 0 1 1 1 1
Neighs:         0.00000 ave           0 max           0 min
Histogram: 8 0 0 0 0 0 0 0 0 0
FullNghs:      233289.0 ave      248966 max      216111 min
Histogram: 2 0 0 0 1 2 1 0 0 2

Total # of neighbors = 1866312
Ave neighs/atom = 810.03125
Ave special neighs/atom = 0.0000000
Neighbor list builds = 333
Dangerous builds = 0

    unfix 1
#    unfix 2
    unfix freeze
    unfix deforming

    timestep 0.002

    fix 1 all   nph	            iso ${ipress} ${ipress} 1.0
    fix 1 all   nph	            iso 0.1 ${ipress} 1.0
    fix 1 all   nph	            iso 0.1 0.1 1.0
    run ${t_pressed}
    run 50000
PPPM initialization ...
  using 12-bit tables for long-range coulomb (src/kspace.cpp:340)
  G vector (1/distance) = 0.1206864
  grid = 32 32 32
  stencil order = 5
  estimated absolute RMS force accuracy = 0.00049681107
  estimated relative force accuracy = 0.00049681107
  using double precision KISS FFT
  3d grid and FFT values/proc = 9261 4096
  generated 0 of 1 mixed pair_coeff terms from geometric mixing rule
Per MPI rank memory allocation (min/avg/max) = 9.326 | 9.329 | 9.334 Mbytes
Step PotEng Temp c_press Lx CPU 
  100000    -181919.6    1.5581016     0.173973           66            0 
  105000   -200324.68    1.6692246  0.096986804    61.917137    14.125944 
  110000   -202281.41    1.6911416  0.098177939    60.775502    28.458236 
  115000   -203469.39    1.6777173   0.10340857    60.276862    42.985033 
  120000   -204259.33    1.7102029  0.099701215    60.091343    57.541801 
  125000   -204843.72    1.7244901  0.095773276    60.038905    72.130416 
  130000   -204976.91    1.7279907  0.098039347    60.007545    86.741066 
  135000   -205178.05    1.7349452   0.10398855    59.961449    101.31812 
  140000   -205209.33    1.6968454    0.1070084    59.913919    115.93231 
  145000   -205386.57    1.7342303   0.10298926     59.95795    130.52153 
  150000   -205479.92    1.6817884   0.10293698    59.943943    145.13479 
Loop time of 145.135 on 8 procs for 50000 steps with 2304 atoms

Performance: 59530.813 tau/day, 344.507 timesteps/s
97.4% CPU use with 8 MPI tasks x 1 OpenMP threads

MPI task timing breakdown:
Section |  min time  |  avg time  |  max time  |%varavg| %total
---------------------------------------------------------------
Pair    | 15.937     | 18.231     | 19.927     |  27.8 | 12.56
Bond    | 0.0053566  | 0.0058437  | 0.0073203  |   0.8 |  0.00
Kspace  | 66.366     | 66.83      | 67.372     |   4.8 | 46.05
Neigh   | 6.6453     | 6.7947     | 7.0522     |   4.5 |  4.68
Comm    | 6.0446     | 6.1366     | 6.2224     |   2.3 |  4.23
Output  | 0.00032367 | 0.00048046 | 0.0015637  |   0.0 |  0.00
Modify  | 44.142     | 45.346     | 47.192     |  16.9 | 31.24
Other   |            | 1.79       |            |       |  1.23

Nlocal:        288.000 ave         298 max         282 min
Histogram: 1 2 1 2 0 0 0 1 0 1
Nghost:        7257.12 ave        7271 max        7239 min
Histogram: 1 0 0 0 3 0 0 2 1 1
Neighs:         0.00000 ave           0 max           0 min
Histogram: 8 0 0 0 0 0 0 0 0 0
FullNghs:      315098.0 ave      325984 max      308604 min
Histogram: 1 2 1 2 0 0 0 1 0 1

Total # of neighbors = 2520786
Ave neighs/atom = 1094.0911
Ave special neighs/atom = 0.0000000
Neighbor list builds = 745
Dangerous builds = 0
    unfix 1
    fix 1 all   nph	            iso ${ipress} ${ppress} 1.0
    fix 1 all   nph	            iso 0.1 ${ppress} 1.0
    fix 1 all   nph	            iso 0.1 0 1.0
    run ${t_relaxed}
    run 100000
PPPM initialization ...
  using 12-bit tables for long-range coulomb (src/kspace.cpp:340)
  G vector (1/distance) = 0.1214356
  grid = 30 30 30
  stencil order = 5
  estimated absolute RMS force accuracy = 0.00049908431
  estimated relative force accuracy = 0.00049908431
  using double precision KISS FFT
  3d grid and FFT values/proc = 8000 3600
  generated 0 of 1 mixed pair_coeff terms from geometric mixing rule
Per MPI rank memory allocation (min/avg/max) = 9.783 | 9.803 | 9.816 Mbytes
Step PotEng Temp c_press Lx CPU 
  150000   -205479.78    1.6817884    0.1029423    59.943943            0 
  155000   -205614.82    1.6990965  0.093060422    60.027196     14.15204 
  160000   -205562.49    1.6802636  0.091882734    60.066195     28.23423 
  165000   -205586.41    1.6945706  0.088107674    60.093348    42.358905 
  170000   -205422.03    1.6605299  0.083520493    60.176001     56.45738 
  175000   -205601.83    1.6864537  0.078856717    60.188017     70.58719 
  180000   -205717.27    1.6704124  0.064039549    60.357127    84.706762 
  185000   -205585.01    1.6989239  0.064895208    60.407624    98.804331 
  190000   -205859.53     1.732888  0.059481335    60.436847    112.84788 
  195000   -205455.95    1.6389392  0.046928595    60.610694    126.93409 
  200000   -205456.76    1.7268635  0.049768734      60.6391    141.01992 
  205000   -205479.82    1.6707388  0.049544196    60.620794    155.04825 
  210000   -205362.65    1.6682191  0.040857026    60.786983    169.08376 
  215000   -205737.02    1.6811026  0.038591983    60.732413    183.12966 
  220000   -205235.72    1.6997404  0.027112982    60.958526    197.17583 
  225000   -205130.28    1.6704117  0.026631279    61.024709    211.14957 
  230000   -204941.83    1.6359727  0.018250795    61.165557    225.12272 
  235000   -204792.43    1.6800635  0.010039736    61.346679    239.04675 
  240000    -204749.6    1.7531266 0.0093253965     61.34234    252.96358 
  245000   -204493.66    1.6948347  0.002312059    61.566754    266.82349 
  250000   -204265.82    1.7549602 0.0024421141    61.690523    280.68981 
Loop time of 280.69 on 8 procs for 100000 steps with 2304 atoms

Performance: 61562.593 tau/day, 356.265 timesteps/s
94.4% CPU use with 8 MPI tasks x 1 OpenMP threads

MPI task timing breakdown:
Section |  min time  |  avg time  |  max time  |%varavg| %total
---------------------------------------------------------------
Pair    | 53.218     | 59.153     | 62.162     |  37.2 | 21.07
Bond    | 0.011146   | 0.011882   | 0.013212   |   0.7 |  0.00
Kspace  | 108.43     | 109.73     | 111        |   9.2 | 39.09
Neigh   | 13.373     | 13.617     | 13.83      |   3.5 |  4.85
Comm    | 12.182     | 12.338     | 12.526     |   3.2 |  4.40
Output  | 0.00062757 | 0.00094038 | 0.0030955  |   0.0 |  0.00
Modify  | 64.267     | 78.492     | 87.523     |  90.7 | 27.96
Other   |            | 7.348      |            |       |  2.62

Nlocal:        288.000 ave         296 max         277 min
Histogram: 1 0 0 0 1 2 2 1 0 1
Nghost:        6951.12 ave        7010 max        6909 min
Histogram: 2 1 1 0 1 0 1 0 1 1
Neighs:         0.00000 ave           0 max           0 min
Histogram: 8 0 0 0 0 0 0 0 0 0
FullNghs:      289146.0 ave      297937 max      277496 min
Histogram: 1 0 0 0 1 2 2 1 0 1

Total # of neighbors = 2313164
Ave neighs/atom = 1003.9774
Ave special neighs/atom = 0.0000000
Neighbor list builds = 1496
Dangerous builds = 0
    unfix 1

    timestep 0.001
    dump moldump all custom 10000 ${xyzname} id type q x y z
    dump moldump all custom 10000 r8f0_coulombic_1.70.lammpstrj id type q x y z
    fix 1 all   nph                 iso ${ppress} ${ppress} 1.0
    fix 1 all   nph                 iso 0 ${ppress} 1.0
    fix 1 all   nph                 iso 0 0 1.0
    run ${t_eq}
    run 10000000
PPPM initialization ...
  using 12-bit tables for long-range coulomb (src/kspace.cpp:340)
  G vector (1/distance) = 0.12075957
  grid = 30 30 30
  stencil order = 5
  estimated absolute RMS force accuracy = 0.000542484
  estimated relative force accuracy = 0.000542484
  using double precision KISS FFT
  3d grid and FFT values/proc = 8000 3600
  generated 0 of 1 mixed pair_coeff terms from geometric mixing rule
Per MPI rank memory allocation (min/avg/max) = 11.05 | 11.07 | 11.08 Mbytes
Step PotEng Temp c_press Lx CPU 
  250000   -204265.87    1.7549602 0.0024401649    61.690523            0 
  255000   -204213.79    1.6646012 0.0024314756    61.736793    13.398824 
  260000   -204302.95    1.7050796 -0.0021221675    61.776917     26.78648 
  265000   -204254.03    1.7190903 -0.0028699261    61.742519    40.228429 
  270000   -204295.87    1.7382216 -0.002569945    61.757511    53.643744 
  275000   -204122.78    1.7043879 0.0021154891    61.741974     67.10587 
  280000   -204181.46    1.7063763 0.0024739509    61.735315    80.518704 
  285000   -204018.88    1.6748676 0.00012685817    61.821075    93.913441 
  290000    -204028.2    1.7271544 -0.0023105036    61.888767    107.31687 
  295000    -204014.8    1.7198041 -0.00076792669    61.796833    120.66263 
  300000   -204129.83    1.6923689 -0.0029464913    61.774255    134.08362 
  305000   -203842.76    1.7043216 -0.0034638963    61.887073     147.5092 
  310000   -203990.29    1.7557646 0.00011886908    61.843002    160.91713 
  315000   -203829.51    1.6562252 -1.5395502e-05     61.93521    174.27582 
  320000   -203844.52    1.6578856 0.0092466405    61.788937    187.64297 
  325000   -203739.11     1.677269 -0.00061881212     61.95627    201.03748 
  330000   -203728.31    1.6795876 -0.0011205078    61.903187    214.46072 
  335000   -203921.09    1.7015944 0.00017765753    61.890484    227.86262 
  340000   -203850.06     1.701534 0.0056553802    61.832748    241.28999 
  345000   -203750.54    1.6855671 0.0014864974    61.909604    254.65711 
  350000   -203756.27    1.7566568 0.00016975244    61.941055    268.02481 
  355000   -203664.77    1.7164358 0.0013949646    62.023107    281.33317 
  360000   -203731.61    1.7338278 0.0062839707    61.861857    294.72746 
  365000   -203791.59    1.7109741 -0.00053452857    61.977671    308.09657 
  370000   -203885.83    1.6916169 -0.0037097835    61.980231    321.50149 
  375000   -203889.35    1.6853126 0.00059902643    61.972272    334.87954 
  380000   -203856.99    1.6877006 -0.0017963617     61.95228    348.25314 
  385000   -204099.96    1.6875782 0.0018668387    61.797744    361.63028 
  390000   -204105.68    1.7237281 0.0019789552    61.777011    375.01524 
  395000   -203854.61    1.7148059 0.0019712569    61.864836       388.41 
  400000   -203839.01    1.6948743 0.00044781314    61.879816    401.78531 
  405000   -203811.29    1.7257259 -0.00030051198    61.982736    415.17976 
  410000   -203640.96    1.6836065 0.0038061017    61.988312    428.54207 
  415000   -203800.36     1.710131 0.0037961559    61.903597    441.87992 
  420000   -203577.64    1.6827238 -0.0064454065    62.025947    455.23026 
  425000   -203804.17     1.654111 -0.00085765759    61.934673    468.59406 
  430000   -203986.85    1.6783763 0.0020898994    61.848194    481.97476 
  435000   -204009.28    1.7080329 0.0037489669    61.785238    495.33353 
  440000   -204002.61    1.6846107 0.0051831379    61.755787    508.70064 
  445000    -203952.9    1.6964897 -0.0023860523    61.832087    522.07136 
  450000   -203754.56    1.7586297 -0.0030391813    61.989908    535.42414 
  455000   -203774.84    1.7184071 0.0022380132    61.859386    548.80338 
  460000   -203994.73    1.6886472 -0.0017413683    61.864685    562.20325 
  465000   -203790.95    1.6573345 -0.007006786    62.032234    575.60861 
  470000    -204143.1    1.6700127  0.001938514    61.793847     588.9944 
  475000   -203898.94    1.6293727 -0.007760739    61.874754    602.40018 
  480000   -204234.38     1.640164 -0.0015809046    61.691827    615.86821 
  485000   -204315.04    1.7081956 -0.0016014001    61.741788    629.27931 
  490000   -203997.47    1.7408506 -0.0057130571    61.797286     642.7308 
  495000   -204000.58    1.7259408 -0.0066339873    61.833645    656.19335 
  500000   -204052.25    1.6963557 -0.0028538743    61.777396      669.617 
  505000   -204124.59    1.7051894 0.00072421668    61.813766    683.01239 
  510000    -203791.4    1.6591064 -0.005733214    61.938542    696.41095 
  515000   -203855.34    1.6912465 -0.0034249044    61.927871    709.80629 
  520000   -203926.25    1.6996902 0.0018819716    61.805244    723.18354 
  525000   -203763.86    1.7168641 -0.0032370618    61.939783    736.57927 
  530000   -203883.68    1.7071461 -0.0043486951     61.95201    749.94635 
  535000   -203780.23    1.6780076 -0.0030192638    61.925471     763.3214 
  540000    -203811.6    1.6371594 0.0026582243     61.79851    776.69694 
  545000   -203775.43    1.6942418 0.0078935255    61.884602    790.09494 
  550000   -203614.74    1.7355754 0.0033678007    61.945812    803.47118 
  555000   -203570.43    1.6885274 -0.0031020356    61.979121    816.85858 
  560000   -203617.31    1.7067158 -0.0043534547    62.034234    830.23803 
  565000   -203706.21    1.7221032 -0.0017222038    61.950711    843.58529 
  570000    -203802.9    1.7369873 0.0041660926    61.852738    856.99697 
  575000   -203691.76    1.7137422 0.0036735974    61.990444    870.38458 
  580000    -203632.4    1.7338418 0.0022046435    61.927378    883.76243 
  585000   -203864.55     1.721355 -0.0047452022    61.936202    897.12189 
  590000    -203818.8    1.7191614 -0.0010956277    61.863429    910.56181 
  595000   -203795.16     1.630919 -0.004647333    61.967227    923.98271 
  600000   -203673.65    1.7144429 -0.0047833849    61.974353    937.40299 
  605000   -203777.12    1.6952555 -0.001644336    61.966897    950.77719 
  610000   -203530.58    1.7122826 0.00068429594     62.03178    964.10676 
  615000   -203430.44    1.7131882 0.0021755791    62.016373    977.41055 
  620000   -203555.93    1.6548285 0.0015234182    62.047147    990.73718 
  625000   -203460.62    1.6891756 0.00090595082    62.065399    1004.0523 
  630000   -203510.32    1.7430287 -0.0083314723    62.158692    1017.3681 
  635000   -203705.51    1.7403391 -0.0010693161    62.017034     1030.712 
  640000   -203854.88     1.694284 -0.0039066046    61.998555    1044.0337 
  645000   -203632.69    1.6476569 -0.0031641461    62.038874    1057.3838 
  650000   -203538.01    1.6851563 -0.0039583954    62.146884    1070.7009 
  655000   -203685.32     1.683482 0.0018321958    61.931567    1084.0335 
  660000   -203596.82    1.6853978 0.0038446199    61.930159    1097.3747 
  665000   -203598.04    1.7068888 -0.0012428941    61.994976    1110.7614 
  670000   -203668.11     1.679698 -0.0018829183    62.035748    1124.0942 
  675000   -203438.21    1.6734568 -0.0051720736    62.124017    1137.4464 
  680000    -203758.9    1.6754562 -0.0016838417    61.972115    1150.7637 
  685000   -203670.22    1.6989587 -0.0061851469    62.054591    1164.1189 
  690000   -203569.64    1.6996588 -0.0028209203    62.043105    1177.5092 
  695000   -203720.44    1.6762609 0.0016488394    61.925971     1190.908 
  700000   -203678.34    1.6663161 -0.0048952591     62.09433    1204.2116 
  705000   -203547.02    1.6857913 -4.2807522e-05    62.017449    1217.5428 
  710000   -203631.79    1.7259928 -0.005240923    62.064426    1230.8954 
  715000   -203658.52     1.684417 4.1253904e-05    62.056942    1244.2485 
  720000   -203566.14     1.683291  0.001054169    62.034505    1257.5823 
  725000   -203735.91    1.6887285 0.0058575128    61.890136      1270.92 
  730000   -203558.49    1.6748705 -0.00049316705     61.99141    1284.2474 
  735000   -203533.16    1.7080602 -0.0015940755    62.052699    1297.5701 
  740000   -203426.52    1.7174704 -0.0037118105    62.107764    1310.8801 
  745000   -203573.98    1.7009539 -0.0053488034    62.032251    1324.2067 
  750000   -203512.99    1.6682082 -0.00065376538    62.083468     1337.545 
  755000   -203754.16    1.7068089 0.00022688231    61.983274     1350.864 
  760000   -203542.92    1.6774274 -0.0029018606    62.067309    1364.2155 
  765000   -203708.55     1.727149 -0.0020963777    62.033861    1377.5163 
  770000   -203442.46    1.7084391 -0.005190228    62.122323    1390.7899 
  775000   -203447.78    1.7025439 -0.00067595993    62.080738    1404.1508 
  780000   -203581.25    1.6991383 0.0033302109    61.939886    1417.5031 
  785000   -203656.11    1.6703119 3.3459683e-05    61.978591    1430.8771 
  790000   -203588.94     1.701333 -0.001964129    62.039441    1444.2275 
  795000   -203453.38    1.7099464 0.0023215214    62.044035    1457.5515 
  800000    -203454.7    1.7045171 0.0038772071    62.019727    1470.8925 
  805000   -203741.11    1.7199178 0.0077776489    61.902564    1484.2419 
  810000   -203555.43    1.7012869 -0.00031443843    62.028912    1497.6117 
  815000   -203636.46    1.6961062 -0.00032128315    62.047142    1510.9818 
  820000   -203554.83    1.7221414 0.0082834677    61.970764    1524.2991 
  825000   -203402.17    1.6652848 0.0061097492    62.017481    1537.6163 
  830000   -203547.77    1.7093353 0.0041875973    62.040693    1550.9169 
  835000   -203306.88    1.7082972 -0.0076690824    62.149101    1564.2266 
  840000   -203601.27    1.6820107 -0.00066551249    62.102411     1577.518 
  845000   -203433.87    1.7069593 0.00061363358    62.081061    1590.8228 
  850000   -203501.67    1.7256044 -0.0066070584    62.114744    1604.1251 
  855000   -203619.96    1.6971734 -0.00074156095    61.999181    1617.3963 
  860000   -203552.26    1.7040959 0.00049152994     62.01832    1630.7315 
  865000   -203596.31    1.6902447 -0.00067474257     62.01448    1644.0698 
  870000   -203568.65    1.6681168 0.0016133316    62.003786    1657.3809 
  875000   -203645.54    1.6556456 -0.0022723215    62.056481    1670.6856 
  880000   -203274.24    1.6876692 -0.0053591231    62.208867     1684.004 
  885000    -203462.5    1.7298382 -0.002404818    62.101252    1697.3377 
  890000    -203508.4    1.6780594 -0.0017938528    62.141032    1710.6106 
  895000   -203669.63    1.6913483 0.0047914654    62.016572    1723.9319 
  900000   -203550.07    1.7029165  0.001538976    62.095874    1737.2279 
  905000   -203536.82    1.7386779 -0.0011434225    62.111448    1750.4785 
  910000    -203475.5    1.6866003 0.0018616108    62.064577    1763.7521 
  915000   -203550.86    1.6560918 -0.0045193461    62.127786     1777.037 
  920000   -203597.92     1.705198 -0.0017185366    62.039818    1790.3289 
  925000   -203633.72    1.7564089 0.0017833568    61.937464    1803.6753 
  930000   -203578.86    1.7213043 -0.003951227    62.102273    1817.0456 
  935000   -203680.14    1.6910996 0.0021377517     61.94425    1830.4223 
  940000   -203732.56    1.6961071 0.0030451797    61.944025    1843.7375 
  945000   -203517.61    1.7170517 0.0062205099    61.979616    1857.0806 
  950000   -203496.54    1.7034739 0.0042300863    62.040649    1870.4124 
  955000   -203558.94    1.6825163 -0.0039289907    62.081319    1883.7178 
  960000   -203560.63    1.7473821 0.0013845053    62.018256    1897.0084 
  965000   -203733.05    1.7021225 -0.0015894457    61.981579    1910.3477 
  970000   -203777.75    1.7046728 0.0020263166    61.958796    1923.6606 
  975000   -203728.53    1.6906783 -0.0066328728    62.069375    1937.0012 
  980000   -203687.09     1.706755 -0.0040851126    62.149983     1950.332 
  985000   -203724.79    1.6722213 -0.0027565522    62.053735    1963.6343 
  990000   -203399.46    1.6597718   0.00292412    62.081518     1976.937 
  995000   -203464.23    1.7072414 -0.0058207156    62.257191    1990.2516 
 1000000   -203455.48    1.7480063 -0.00088676707    62.183313    2003.5316 
 1005000   -203249.87    1.7198502 -0.00041896306    62.183329    2016.8403 
 1010000   -203454.75    1.7002943 0.00094288337    62.137904    2030.1604 
 1015000   -203410.69    1.6729722 0.00023411523    62.089997    2043.4656 
 1020000   -203469.94    1.6778712 0.0062426381    62.038438    2056.7725 
 1025000   -203308.45    1.7254562 -0.0004374112     62.11089    2070.1035 
 1030000   -203263.66     1.719293 -0.0013506254    62.204759     2083.399 
 1035000   -203175.02    1.7235203 -0.0016504585    62.252271    2096.7278 
 1040000   -203145.03    1.6831707 0.0010577151    62.267244    2110.0199 
 1045000   -203058.34    1.6817364 -0.00059787864    62.348114    2123.2862 
 1050000   -203306.65    1.7232927 0.0016212306    62.177584    2136.4825 
 1055000   -203329.02    1.6600067 0.0033808073    62.159206    2149.7482 
 1060000   -203324.06    1.6839184 0.0032296539    62.176966    2163.0144 
 1065000   -203459.49    1.7235191  0.003555653    62.122466    2176.2934 
 1070000   -203351.55      1.68111 -0.0032495693      62.2138    2189.5851 
 1075000   -203363.67    1.6748473 0.0019977394    62.082656    2202.9199 
 1080000   -203577.74    1.7142542 0.00089123232    62.010842    2216.2303 
 1085000   -203467.56    1.7244752 0.0017272896    62.000509     2229.547 
 1090000   -203354.02    1.7013467 0.0035192747    62.057692    2242.8648 
 1095000   -203428.53    1.7061604 0.0005255181    62.026614     2256.194 
 1100000   -203307.97    1.6563317 0.0039689646    62.064312    2269.4829 
 1105000   -203233.34    1.6919898 -0.0056527634    62.218098    2282.7699 
 1110000   -203373.14    1.7016307  0.001913163    62.095419    2296.0449 
 1115000   -203129.69    1.7627005 0.0033425929    62.145657     2309.348 
 1120000   -203415.66    1.6988496 0.0034064901    62.071293    2322.6638 
 1125000   -203270.59     1.713531 0.0040154743    62.119966    2335.9566 
 1130000   -203383.85    1.7054828 -0.00076395197    62.127127    2349.2697 
 1135000    -203314.9    1.6955548 0.0031111642    62.139071    2362.5795 
 1140000   -203234.97      1.66225 0.0056388531    62.202004    2375.8671 
 1145000   -203382.95    1.6551059 0.0057014209    62.122647    2389.1462 
 1150000   -203169.79    1.7333791 -0.0039417041    62.324823    2402.4625 
 1155000   -203350.58    1.6643811 -0.0071594656    62.356859    2415.7611 
 1160000   -203364.68    1.6940924 0.0066293772    62.136167    2429.0407 
 1165000    -203231.3    1.6821328 0.0018758222     62.20998    2442.3578 
 1170000   -203168.08    1.6755207 0.0017245535    62.145223    2455.6722 
 1175000   -203200.96    1.7252107 -0.00062934638    62.206034     2468.953 
 1180000   -203064.23     1.732711 0.0040517986    62.184726    2482.2272 
 1185000    -203150.8     1.711042 0.0014346348    62.239935    2495.5257 
 1190000   -203323.66    1.6695323 -0.0002746613    62.191762    2508.7987 
 1195000   -203340.39    1.7265295 -0.0022031435    62.184184    2522.0903 
 1200000   -203151.42    1.7204797 -0.0056763039    62.266084     2535.399 
 1205000   -203478.89     1.700616 0.0016922118    62.104582    2548.7021 
 1210000   -203317.13    1.6861294 -0.0036597777    62.284803    2561.9708 
 1215000    -203196.7    1.6844243 -0.00094421131    62.252188    2575.2785 
 1220000   -203197.27    1.6985602 -0.004311839    62.336848    2588.5145 
 1225000   -203342.05     1.708921 0.0023422662    62.177879    2601.8038 
 1230000    -203366.3    1.6673788 -0.0045361753    62.219063    2615.0943 
 1235000   -203369.43    1.7334332 -8.2809657e-05    62.125667    2628.3759 
 1240000   -203159.02     1.701219 -0.0043269473    62.277074    2641.6688 
 1245000   -203144.77    1.6789054 -0.0010256242    62.271527    2654.9512 
 1250000   -203148.72    1.7006858 -0.0018443569    62.270458    2668.2697 
 1255000   -203378.63    1.7233241 0.0019888957    62.192122    2681.5691 
 1260000   -203209.11    1.7010071 -0.00076151971    62.244857    2694.8902 
 1265000   -203320.13    1.6900917 -0.0017401879    62.243853    2708.1872 
 1270000   -203448.99    1.7027642 -0.0052736357    62.187639    2721.4713 
 1275000   -203298.32    1.6792236 0.0019793349    62.093058    2734.7677 
 1280000   -203404.16    1.7079072 -0.001986491    62.031809    2748.1031 
 1285000   -203597.57    1.7569634 0.0037495518    61.968312    2761.4241 
 1290000   -203478.17    1.7197731 -0.0018562686     62.05355    2774.7474 
 1295000   -203574.21    1.6961488 0.0040575631     61.93875    2788.0546 
 1300000   -203335.33    1.7101199 9.535906e-05    62.146812    2801.4057 
 1305000   -203500.28    1.6654823 0.00057096808    62.116335    2814.6911 
 1310000   -203594.03    1.6808836 -0.0030167053    62.148351    2827.9848 
 1315000   -203599.54    1.6870704 0.0020364037    62.000068    2841.2879 
 1320000   -203547.77    1.6793851 -0.0024103887    62.097757    2854.5784 
 1325000   -203780.15    1.6953756 -0.00092748223    61.991392    2867.9337 
 1330000   -203635.34    1.6845647 -0.0065032561    62.075746    2881.2703 
 1335000      -203667    1.7288351 0.0011897858     61.98638    2894.6348 
 1340000   -203478.26    1.6979711 0.0067451828    62.006278    2907.9608 
 1345000   -203580.81    1.6961218 -0.0034013478    62.050095    2921.3022 
 1350000   -203554.56    1.7050768 0.0013247537    61.983793    2934.6494 
 1355000   -203433.82    1.6643216 -0.0048735972    62.157974    2947.9832 
 1360000   -203576.61    1.6985437 -0.0019868324    62.064071    2961.2914 
 1365000   -203528.57    1.7527153 -0.006912143     62.17621    2974.6293 
 1370000   -203666.91    1.7331484 0.0064890354     61.92879    2988.0037 
 1375000   -203284.84    1.7044915 -0.0021749273    62.140675    3001.3254 
 1380000   -203530.13    1.7125692 -0.00097792043    62.083512    3014.6421 
 1385000    -203159.6    1.7287025 -0.0047193645    62.180995    3027.9548 
 1390000   -203267.08    1.6939322 -0.0034488667    62.163614    3041.2519 
 1395000   -203211.57    1.6669318 -0.00036685063    62.125524    3054.6138 
 1400000   -203444.96    1.7163297 -0.001656172    62.126798    3067.9212 
 1405000   -203423.49    1.6829777 -0.0031857132    62.154899    3081.2753 
 1410000   -203456.48    1.7362482 -0.0030177719    62.180807    3094.5824 
 1415000   -203305.21    1.6884824 -0.00082208682    62.088883    3107.8965 
 1420000   -203526.77    1.6827806 0.0011787037    62.052063    3121.2367 
 1425000   -203372.28    1.7173648 -0.00096813469    62.147589    3134.5535 
 1430000   -203326.95    1.7379842  0.003513552    62.136627    3147.8499 
 1435000   -203519.68    1.6890106  0.005350501     62.00586    3161.1588 
 1440000   -203302.33    1.6974482 0.0015080222    62.105796    3174.4455 
 1445000   -203341.83    1.7030673 -0.0019798447    62.172033    3187.7549 
 1450000   -203332.39    1.7157982 -0.0023476187    62.203456    3201.0551 
 1455000   -203350.68    1.7545144 0.00025207867    62.190157    3214.3359 
 1460000   -203434.16    1.6889538 0.0037031028    62.055616    3227.6823 
 1465000   -203245.01    1.7017386 -0.0011721671    62.191087    3240.9764 
 1470000   -203397.31    1.6687611 0.00015463709    62.215764    3254.2607 
 1475000   -203420.72    1.6906221 -0.00031847869    62.154352    3267.5237 
 1480000   -203363.13    1.6935473 -0.0014106183    62.208842    3280.8234 
 1485000   -203329.62     1.667756 0.0029918789    62.152866    3294.0969 
 1490000   -203627.23    1.6685868 0.0013089352    62.050372    3307.4343 
 1495000    -203435.9    1.7209335 0.0057154244    62.035836     3320.733 
 1500000   -203330.35    1.6695467 0.00053997361    62.137829    3334.0281 
 1505000   -203485.36    1.7097801 0.00035556866    62.158648    3347.3475 
 1510000   -203307.37    1.6626606 -0.0068783874    62.233399    3360.6301 
 1515000   -203575.91    1.7280414 0.0050802789    62.021937    3373.9051 
 1520000   -203531.37    1.7198863 0.00059713267    62.103555    3387.2161 
 1525000   -203288.42    1.6852817  0.002176287    62.081128    3400.5015 
 1530000   -203346.37    1.6798541 0.0022655596    62.116305    3413.8304 
 1535000   -203473.47    1.6864133 -0.0056265643    62.106555     3427.143 
 1540000   -203583.64    1.7016771 0.0041672325    61.991186    3440.4522 
 1545000   -203409.89    1.7411914 -0.00011814037    62.098509    3453.7763 
 1550000    -203601.4    1.6866259 0.00082734043    62.088298    3467.1192 
 1555000   -203684.69    1.7283878 -0.00057774513    62.106224    3480.4344 
 1560000   -203460.61    1.7421267 -0.0061456481    62.187063    3493.7477 
 1565000   -203399.39    1.7110638 -0.007837098    62.209866    3507.0625 
 1570000   -203317.94    1.6803918 0.0064282555    62.074584     3520.354 
 1575000   -203452.37    1.7031484 -0.0042170851    62.168938    3533.6486 
 1580000   -203356.74     1.699243 5.4894987e-05     62.14964    3546.9477 
 1585000   -203428.04    1.7201184 0.0014836673    62.090524    3560.2478 
 1590000   -203457.72     1.624432  0.002157982    62.018376    3573.5871 
 1595000    -203572.3    1.7078615 -0.0037967013    62.119459    3586.9225 
 1600000   -203461.46    1.6860984 -0.0019633787    62.122368    3600.2591 
 1605000   -203654.46    1.6925986 0.0060786092    61.991581    3613.5688 
 1610000   -203561.02    1.6735693 -0.00038655819    62.028134    3626.9056 
 1615000   -203545.33    1.7318949 0.0039891882    61.952928    3640.2249 
 1620000   -203808.24    1.6860509 -0.0017888683    61.915065    3653.5838 
 1625000   -203548.52    1.6857123 0.0041885928    61.936492     3666.968 
 1630000   -203716.61    1.7291394 2.4579797e-06    61.972399    3680.2719 
 1635000   -203736.97    1.7016249 0.0028389388    61.901484    3693.6311 
 1640000   -203736.25    1.7089361   -0.0013097    61.961998    3706.9889 
 1645000   -203496.38    1.6977791 0.0040827067    62.057493    3720.3211 
 1650000   -203588.67    1.6724862 0.0021050718    61.969415     3733.692 
 1655000   -203444.51    1.7531564 0.0041052502    62.016019    3747.0263 
 1660000   -203238.37    1.7140443 -0.0010668237    62.130013    3760.3449 
 1665000   -203315.28    1.6569413 -9.2336826e-05    62.120952    3773.6664 
 1670000   -203303.27    1.6869333 -0.012532882    62.311534    3787.0152 
 1675000   -203351.57    1.7082023 0.0032686737    62.063357    3800.3195 
 1680000   -203405.55    1.6999304 -0.0020907234    62.165867    3813.6039 
 1685000   -203271.58    1.6703075 0.0027287896    62.081245    3826.9175 
 1690000   -203394.12    1.6967496 -0.0013215288    62.026742    3840.2495 
 1695000   -203402.19    1.6647297 0.0050192751    62.008414     3853.591 
 1700000   -203672.64    1.7170181 0.0097088542    61.856033    3866.9514 
 1705000   -203391.97    1.6949445 -0.0014749896    62.033861    3880.2881 
 1710000   -203528.66    1.6882992 -0.00093675582    61.986747    3893.5977 
 1715000    -203548.6    1.6914278 -2.2094225e-05    62.020518    3906.9271 
 1720000   -203336.28    1.6957789 0.0038582669    62.037166    3920.2668 
 1725000   -203407.94    1.7133577 -0.0073451251    62.154936    3933.5524 
 1730000   -203454.66    1.7081123 0.0034242194    62.058699    3946.8279 
 1735000   -203244.39    1.7125845 -0.0025594297    62.140714    3960.1793 
 1740000   -203289.08    1.6769835 -0.0045875888    62.226774    3973.4635 
 1745000   -203156.22    1.7223677 -0.00065801804    62.208808     3986.723 
 1750000   -203317.17    1.6912727 -0.0047567288    62.198774    4000.0407 
 1755000   -203587.42    1.6865442 0.00080790415    62.013423     4013.329 
 1760000   -203649.01    1.7513482 0.0003041525    62.000514     4026.649 
 1765000   -203820.29    1.7076351 -0.0032920615    61.886401    4040.0351 
 1770000   -203806.53    1.6791549 0.0056202377    61.928777    4053.3634 
 1775000   -203760.87    1.6989236 0.0016206363    61.948179    4066.7455 
 1780000   -203750.42    1.7613905 -0.0015047002    62.045885    4080.0959 
 1785000   -203715.24    1.6886189 0.0019140429    62.016982    4093.4103 
 1790000   -203759.58    1.6756037 0.0036990113    61.982793      4106.71 
 1795000   -203698.98    1.7505372 0.0065953017    61.876316    4120.0608 
 1800000   -203700.52    1.6659874 0.0038877283    61.893256     4133.392 
 1805000   -203683.42    1.6732181 0.0033844287    61.926171    4146.7467 
 1810000   -203821.94    1.6830601 0.0007468815    61.963467    4160.1072 
 1815000   -203659.27    1.6602663  0.001964894    61.935718    4173.4558 
 1820000   -203747.58    1.7155482 -0.00078122837    61.934323    4186.7981 
 1825000   -203613.36    1.7397702 0.0018329291    61.954828    4200.1537 
 1830000   -203440.05    1.7125608 0.0014639808    62.053589    4213.4777 
 1835000   -203306.59    1.6688115 -0.0036826564    62.169198    4226.7975 
 1840000   -203440.88    1.6831316   0.00458392    62.026115    4240.1035 
 1845000   -203572.29    1.7404393 -0.0011267144    62.062796    4253.4198 
 1850000   -203549.84      1.63954 -0.00020136717    61.996562    4266.7257 
 1855000   -203696.77    1.6765207 0.00080046808    61.918092    4280.0622 
 1860000   -203584.75    1.7272936 0.0030994088     61.96742     4293.381 
 1865000   -203744.64    1.6796631 -0.010876923    62.101577    4306.7289 
 1870000   -203567.72    1.7094317 0.00043451872    62.001766    4320.0402 
 1875000   -203456.28    1.7108814 -0.0049849873    62.174901    4333.3441 
 1880000    -203682.3    1.6806315 0.0053704205    61.989309    4346.6936 
 1885000   -203472.99    1.6767185 -0.0069854478    62.206863    4360.0108 
 1890000   -203507.61     1.687869 -0.0044067642    62.050087    4373.3441 
 1895000   -203720.85    1.7314243  0.001286374    61.934988    4386.7279 
 1900000   -203651.59    1.7182963 -0.0028340083    62.034706    4400.0965 
 1905000   -203581.37    1.6889016 0.0012080929     62.05758    4413.4177 
 1910000   -203473.11    1.6920214 0.0028748789    62.034971    4426.7675 
 1915000   -203393.15    1.6752683 -0.0052311186    62.259094     4440.034 
 1920000   -203577.89    1.7355054 0.0047986528    62.034764    4453.3032 
 1925000   -203679.18    1.7503643 0.00043187636      62.0015    4466.6197 
 1930000   -203650.23    1.6841429 -0.0011280765    62.019796    4479.9876 
 1935000   -203523.08    1.6804201 -0.0040911559    62.138363    4493.2935 
 1940000   -203393.53    1.6958075 0.0017914304    62.108116    4506.6384 
 1945000   -203344.82    1.6319288 -0.0013253969    62.196988    4519.9719 
 1950000   -203534.99    1.6510765 -0.0016274426    62.145073    4533.3009 
 1955000   -203539.47    1.7210268  0.004660454    62.047184    4546.5741 
 1960000   -203542.84    1.6857663 -0.0009688157    62.117026    4559.8838 
 1965000   -203340.15    1.7344604 -0.0019663439    62.195498    4573.2027 
 1970000   -203366.61    1.7251775 -0.0053757592     62.28097    4586.5133 
 1975000   -203345.43      1.75519 -0.0028533941    62.291726    4599.7692 
 1980000   -203284.17    1.6841617 0.0042380563    62.152731    4613.0326 
 1985000   -203162.84    1.7228211 -0.0036165977    62.276547    4626.3207 
 1990000   -203292.26    1.6766897 0.0013112592    62.240335    4639.6442 
 1995000   -203347.32    1.6855746 -0.00074085931    62.215004    4652.9217 
 2000000   -203301.44    1.6874053 -0.0041585866    62.187343    4666.2221 
 2005000   -203392.05    1.6772742 -0.0016453767    62.181311    4679.5098 
 2010000   -203371.16    1.6695664 -0.00033653752    62.138924    4692.8165 
 2015000   -203468.49    1.6871184 0.0034745796    62.074447    4706.1717 
 2020000   -203457.61    1.7053731 0.0026651643    62.089955    4719.5164 
 2025000   -203402.49    1.7114244 0.0054734473    62.051238    4732.8391 
 2030000   -203609.33    1.6763644 0.0041635719    62.007982    4746.1671 
 2035000   -203406.35    1.6921533 -0.00053504168    62.026905    4759.4781 
 2040000   -203432.78    1.6773818  0.002042346    62.026232    4772.8073 
 2045000   -203294.02    1.6948188 -0.0010361775    62.144723    4786.0954 
 2050000   -203401.51    1.7108114 0.0029587619    62.104332    4799.4265 
 2055000   -203384.96    1.6630447 0.0071106683    62.038116      4812.74 
 2060000   -203474.57    1.7463073 0.0018024632    62.088116    4826.0626 
 2065000   -203473.17    1.7112445  0.006149372    61.981465    4839.3866 
 2070000   -203469.51    1.7292977 -0.0023745089    62.102941    4852.7521 
 2075000   -203534.74    1.6846197 0.0013043663    61.998694    4866.1461 
 2080000   -203675.67    1.6723842 0.0017266963    61.959135    4879.4519 
 2085000   -203407.22    1.6900251 -0.00065201281    62.094647    4892.7623 
 2090000   -203463.12    1.7357555 -0.0013887484    62.093769    4906.0829 
 2095000   -203574.54    1.6920538 0.0030412777    62.018597    4919.3623 
 2100000   -203576.32    1.6861965  0.001586307    62.085171    4932.6798 
 2105000      -203371    1.6834093  0.001772963    62.163256    4945.9787 
 2110000   -203370.93    1.6853815 0.0036454714    62.136674    4959.2993 
 2115000   -203395.83    1.6915181 -0.0030959066    62.149559    4972.5719 
 2120000   -203358.57    1.6353808 -0.0004196474    62.075331    4985.8639 
 2125000   -203560.99    1.6905584 0.00084610077    62.041213    4999.1658 
 2130000   -203469.15     1.663492 -0.0024193087    62.062014    5012.4933 
 2135000   -203618.53    1.7072473 0.0038516875    62.066131    5025.8344 
 2140000   -203456.18    1.7380256 -0.0007261659    62.083584    5039.1416 
 2145000   -203461.47    1.7407485 -0.0035873643    62.133493    5052.4995 
 2150000    -203576.8    1.6474452 0.0035212691    61.984138    5065.8408 
 2155000   -203545.67    1.7000331 5.0622462e-05    62.071829    5079.1322 
 2160000   -203272.77    1.7416673 0.0049495269    62.022949    5092.4686 
 2165000   -203299.78    1.7031472 0.00091757388    62.160196    5105.7938 
 2170000   -203391.57     1.721295 0.0024609757    62.064626    5119.1256 
 2175000   -203356.55    1.6639662 0.00044900255    62.075093    5132.4669 
 2180000   -203455.45    1.6678818 0.0035974137    62.065066    5145.7871 
 2185000   -203625.08    1.6967469 0.0050591327    62.015167    5159.1168 
 2190000   -203438.48    1.7084877 -0.00011483117    62.068934    5172.4777 
 2195000   -203516.09    1.7345351 -0.0044104047    62.131688    5185.7541 
 2200000   -203580.96    1.6834982 -0.0011187495    62.066044    5199.0983 
 2205000   -203446.99    1.6559005 0.0076978404    62.042718     5212.421 
 2210000   -203278.47      1.69997 -0.002451773    62.241923    5225.7219 
 2215000   -203289.77    1.7232214 0.0040456387    62.177856    5239.0234 
 2220000   -203297.76    1.6622062 -0.0029193817    62.199559    5252.3456 
 2225000   -203491.75     1.660272  0.004558744     62.09687     5265.694 
 2230000   -203600.32    1.7066951 -0.0078626462    62.257851    5278.9937 
 2235000   -203246.69    1.6749988  -0.00764648    62.275039    5292.3277 
 2240000   -203289.44    1.7018053 0.00061815226    62.164578    5305.6078 
 2245000   -203432.18    1.7051748 0.0014713278     62.10331    5318.8632 
 2250000    -203344.1    1.7216451 -0.00090300547    62.225452    5332.1544 
 2255000   -203230.68    1.6674439 -0.0022736562    62.230246    5345.4197 
 2260000    -203223.2    1.6536265 -0.00061065033    62.134635    5358.6987 
 2265000   -203591.83    1.7232214 0.0050286538    61.993998     5372.012 
 2270000   -203529.89     1.705184 0.0049652141    61.983758    5385.3197 
 2275000   -203512.99    1.7027059 0.0057988573    61.924059    5398.6717 
 2280000   -203392.96    1.7029508 -0.0025606287    62.103726    5412.0141 
 2285000   -203380.51    1.7276089 0.00063587756    62.098445     5425.337 
 2290000   -203431.77    1.6948356 0.0014800609    62.097335    5438.6413 
 2295000      -203325     1.719523 -0.001974553    62.215535    5451.9791 
 2300000   -203412.66    1.6806551 -0.0051697597    62.100864    5465.2939 
 2305000   -203764.42    1.7098809 0.0037817961    61.988496     5478.619 
 2310000   -203358.72     1.645505 0.0021399687    62.048391    5491.9337 
 2315000   -203462.25     1.749689 -0.0013274111    62.093506    5505.2343 
 2320000   -203514.67    1.7223747 0.0022056136    62.024575    5518.5815 
 2325000    -203254.9     1.704804 0.00048068236    62.095157     5531.894 
 2330000   -203402.24    1.6827394 -0.0026926173    62.175744    5545.1877 
 2335000   -203481.59    1.6688714 -0.0057576836    62.107495    5558.5083 
 2340000    -203490.4    1.7203136 0.00021613172     62.05456     5571.811 
 2345000   -203520.05    1.7111957 -0.00072816212    62.078504     5585.155 
 2350000   -203581.85    1.7161468 -0.005339126    62.150229     5598.488 
 2355000   -203375.95    1.6741767 0.00038232952    62.077462    5611.7975 
 2360000   -203427.57    1.6865446 -0.00088504635    62.124116    5625.1828 
 2365000   -203417.26    1.7162791 0.00095053414    62.070808    5638.5181 
 2370000   -203561.67    1.7249022 -0.006099332    62.116539    5651.8199 
 2375000   -203738.17    1.7382581 0.0040317364    62.011517    5665.1283 
 2380000   -203821.73    1.7055693 0.0013183809    61.888763    5678.4728 
 2385000    -203722.7    1.6433668 -0.0034421275    62.040118    5691.8241 
 2390000   -203716.65    1.7317939  0.001274742    62.027828     5705.147 
 2395000   -203477.86    1.7264286 0.0015968797    62.122991    5718.5169 
 2400000   -203224.94    1.7371133 -0.0010241586    62.253059    5731.8573 
 2405000   -203300.31    1.7111534 -0.00021390756    62.196707    5745.1867 
 2410000   -203308.32    1.7195816 -0.0010648305    62.205604    5758.5654 
 2415000      -203406    1.6713243 0.0030062647    62.167049    5771.8522 
 2420000   -203179.65     1.702731 0.00045580683    62.219201    5785.1373 
 2425000   -203528.56    1.6715504 0.0011042629    62.077656    5798.4399 
 2430000   -203472.12    1.7305271 0.0043283969    62.093319    5811.7451 
 2435000   -203346.58    1.7175803 -0.00089851574    62.197993     5825.049 
 2440000   -203354.72    1.6571628 0.0025630968    62.126106    5838.3119 
 2445000   -203146.16    1.6754586 0.0018503944    62.193195    5851.5918 
 2450000   -203448.23    1.7002472 0.00012012112    62.207321    5864.8723 
 2455000   -203376.43    1.6962887 0.0027052695    62.092113     5878.145 
 2460000   -203493.98    1.7481132 0.00020137685    62.110809    5891.4756 
 2465000   -203616.54    1.6625837 -0.0036128913    62.096055    5904.8399 
 2470000    -203676.6    1.6883378 0.00098425661    61.991918     5918.183 
 2475000   -203758.33    1.7370361 6.7118174e-05    61.933134    5931.5314 
 2480000   -203614.54    1.7342413 -0.00061266006    61.977911    5944.9423 
 2485000   -203755.03    1.6841125 0.00078218774    61.945701    5958.2618 
 2490000   -203697.15     1.680414 -0.0033827154    61.996203    5971.5948 
 2495000   -203590.13    1.6981848 -0.0033926614    62.099374    5984.8917 
 2500000   -203670.54     1.717578 -0.0016638456    62.053855    5998.2251 
 2505000   -203660.84    1.6942319 0.0054254384    61.957649    6011.5326 
 2510000   -203571.09    1.6870164 0.0027433566    62.031382    6024.8782 
 2515000   -203743.96    1.7129422 -0.0043490398    62.038561     6038.179 
 2520000    -203878.1     1.703677 0.0032260596    61.886694    6051.5448 
 2525000   -203618.65    1.6919176 -0.0051940315    62.034174    6064.8863 
 2530000   -203894.65    1.6888825 0.0017427404    61.846567    6078.2349 
 2535000   -203656.34    1.6975669 0.00096865528     61.97182    6091.5575 
 2540000   -203848.11    1.6967499 8.7580492e-05    61.977571    6104.9122 
 2545000   -203714.72    1.6633941 0.0066448063    61.844609    6118.2173 
 2550000   -203682.96    1.7419686 0.0043715502    61.907481    6131.5302 
 2555000   -203828.63    1.6902395 0.0021634594    61.853434    6144.8828 
 2560000   -203450.13    1.6470842 -0.0066978006    62.067207    6158.2644 
 2565000   -203623.27    1.7519568  0.002411985    61.909517    6171.6045 
 2570000   -203906.64    1.6918968 -0.0039798723     61.86631    6184.9897 
 2575000   -204043.21    1.7494321 -0.0069483393    61.910619    6198.3558 
 2580000   -204056.01    1.6944769 -0.00089239113     61.77423    6211.7583 
 2585000   -203942.21    1.6782941 -0.0083790434    61.886767    6225.1885 
 2590000   -203715.72    1.6991917 -0.0020367185     61.96206     6238.555 
 2595000   -203840.81     1.673314 0.0023407151    61.876454    6251.8923 
 2600000   -203836.53     1.707245  0.001261389    61.986711    6265.2592 
 2605000   -203717.87    1.6978259 -0.0072919981    62.109056    6278.5992 
 2610000   -203596.75    1.7028541 0.0021817996    61.989503    6291.9294 
 2615000   -204021.56     1.688123 -0.001928419    61.915658    6305.2826 
 2620000    -203730.5     1.714615 -0.00083252377    61.971721    6318.6625 
 2625000   -203774.46    1.7426794 0.00073747901     61.93007    6331.9744 
 2630000   -203857.72    1.7328732 0.0027107257     61.82878    6345.3784 
 2635000   -203979.37    1.7256506 -0.0052392814    61.853347    6358.7389 
 2640000   -203865.08    1.6912561 0.0030316158    61.814304    6372.1537 
 2645000   -203818.02    1.6973807 -0.0039402912    61.893984     6385.529 
 2650000   -204005.32    1.7182269 -0.0011201277    61.873841    6398.8647 
 2655000   -203876.48    1.6573784 -0.0049998961    62.003704     6412.188 
 2660000   -203663.08     1.709798 -0.00012597097    61.984544    6425.5281 
 2665000   -203871.36    1.6553036 -0.0013115153    61.985058    6438.8772 
 2670000   -203678.69    1.7042359 -0.0033801389    62.061724    6452.1882 
 2675000   -203666.31    1.7012891 0.0042609746     61.92388    6465.5331 
 2680000   -203549.29    1.6881552 -0.00011103519     62.03477    6478.8606 
 2685000   -203739.65    1.6995786 0.0013200892    61.946246    6492.1798 
 2690000   -203551.73    1.7412016 0.0044075802    62.007537    6505.4991 
 2695000   -203895.18    1.7192613 0.0034411947    61.889907     6518.862 
 2700000   -203886.88    1.7485516  0.010141563    61.826297    6532.1958 
 2705000   -203986.63    1.6613729 -0.0024980821    61.896304    6545.5623 
 2710000   -203917.13    1.6902039 -0.0026520474    61.956088    6558.8847 
 2715000   -203747.68    1.6745371 0.0021839354    61.964533    6572.2151 
 2720000   -203795.94    1.6815093 -0.004210219    62.002653    6585.5624 
 2725000    -203650.6    1.6912711 -0.0013606572    62.023316    6598.8794 
 2730000   -203696.24    1.7312823 0.0014042701     62.03451    6612.1739 
 2735000   -203914.36    1.7521423  0.010266255    61.837541    6625.5435 
 2740000   -203867.81    1.6518944 0.0049424984    61.843231    6638.8693 
 2745000   -203872.71    1.7453633 0.0034974379    61.865044    6652.2065 
 2750000   -203679.97    1.6907876 0.0035705077    61.895935    6665.5836 
 2755000   -203803.79    1.6962355 -0.0033694892      61.9803    6678.9314 
 2760000   -203825.52    1.7151032 0.0010248265    61.874732    6692.3207 
 2765000   -204037.03    1.7054772 0.0078821318    61.731634    6705.7295 
 2770000   -204013.55    1.7373621 -0.0039228062    61.861324    6719.1148 
 2775000   -204026.67    1.6975134 -0.0087517023     61.88142    6732.5459 
 2780000   -204168.28    1.7423469 -0.0041879035    61.891494    6745.9099 
 2785000   -203979.27    1.7190542 -0.0011756648    61.833163    6759.2563 
 2790000    -204073.1    1.7169543 -0.0034811438    61.821648    6772.6496 
 2795000   -204223.07     1.700801 0.0032305784    61.710249    6786.0397 
 2800000    -204256.2    1.7062664 0.0039865029    61.673736     6799.464 
 2805000   -204242.87    1.7054456 -0.0014902945    61.738874    6812.9289 
 2810000   -204062.29    1.7022238 -0.0015910791    61.854069    6826.3429 
 2815000   -203853.28    1.7143364 0.00018549701    61.877382    6839.7186 
 2820000   -204114.21    1.7464423  0.006585055    61.707535    6853.0867 
 2825000   -203781.29     1.724971 0.0018964078    61.860997    6866.4796 
 2830000   -203893.14    1.6955441 0.0037147126    61.866554    6879.8876 
 2835000   -203820.29    1.6738698 0.00017961925      61.9248    6893.2541 
 2840000    -203784.4    1.6695963 -0.0026631608     61.92203    6906.6579 
 2845000   -203793.85    1.7162719 -0.0003358139    61.872105    6919.9766 
 2850000   -203986.24    1.7035309 -0.0026784479    61.883354    6933.3385 
 2855000   -203943.25    1.6870438 0.0024769397    61.808504    6946.7006 
 2860000   -203860.24    1.7377992 0.0029423575    61.888848    6960.0859 
 2865000   -203933.31    1.6436724 -0.0011100248    61.930472    6973.4541 
 2870000   -203650.32     1.724214 0.0017041551    61.980679    6986.7602 
 2875000   -203540.02    1.6460441 -0.00027801304     61.99612    7000.0576 
 2880000    -203727.5    1.6784753 -0.00056100002    62.021186    7013.3871 
 2885000      -203656    1.6786903 0.0002649077    62.039958    7026.7173 
 2890000   -203609.76    1.6821444 0.0027186993     61.98211    7039.9943 
 2895000   -203557.15    1.7006839 -0.0013805206    62.028888    7053.3032 
 2900000    -203688.9    1.6928962 -0.0045248776    62.080308    7066.6231 
 2905000   -203696.44    1.6872072 0.0045718911    61.949808    7079.9697 
 2910000   -203574.73    1.7026171 0.00034801333    62.048672    7093.2944 
 2915000      -203652    1.6905036 0.0015218812    62.026946    7106.5771 
 2920000   -203565.55    1.6894053  -0.00213079     62.07119    7119.8639 
 2925000   -203475.22    1.6882182 0.0020950131    62.112904    7133.1825 
 2930000   -203608.96    1.7126475  0.002780174    62.003085     7146.462 
 2935000   -203471.19    1.6911402 0.0006595329    62.065172    7159.7545 
 2940000   -203649.71    1.7063723 -0.0012987946    62.077462    7173.0973 
 2945000   -203629.31    1.6857007 -0.0050186223     62.12001    7186.4351 
 2950000   -203716.72    1.6646151 -0.00016321235     62.07251    7199.7406 
 2955000   -203636.88    1.6542968 -0.0089079451    62.076811    7213.1044 
 2960000   -203632.46    1.6543364 -0.005195825     62.04969    7226.4529 
 2965000   -203648.94    1.6584619 0.0050979301     61.89108    7239.7714 
 2970000    -203771.4    1.6623187 0.0017754762    61.912562       7253.1 
 2975000   -203615.83    1.7223001 0.0010867583    61.989672    7266.4106 
 2980000   -203652.15    1.6632054 -0.0040483518     62.09852    7279.7169 
 2985000   -203266.49    1.6829926 -0.00082292628    62.216238    7292.9939 
 2990000   -203518.66    1.6674256 0.0014368715    62.078442    7306.2448 
 2995000   -203107.94    1.6751811 0.00064497649    62.193112    7319.5024 
 3000000   -203246.43    1.7034629 0.0019372155     62.10753    7332.7651 
 3005000   -203203.65    1.7005815 0.0059657051    62.111354    7346.0373 
 3010000   -203405.55    1.7008881 -0.0039953596    62.102176    7359.3322 
 3015000   -203238.53    1.7545853 -0.0041307448    62.205582    7372.6551 
 3020000   -203534.69    1.7186638 -0.00036794664    62.003278    7386.0007 
 3025000    -203445.9    1.7094463 0.0018273998    62.016473    7399.3092 
 3030000   -203367.94    1.6816316 -0.0051834311    62.056292    7412.6789 
 3035000   -203127.83    1.6422203 0.00010791699    62.204626    7425.9778 
 3040000   -203239.77    1.7084995 0.0026980544     62.13585     7439.281 
 3045000   -203376.44    1.7150792 0.00031396059    62.105767    7452.6257 
 3050000      -203399    1.7118516 -0.0037370969    62.149132    7465.9691 
 3055000   -203438.66    1.6812935 -0.0051589741    62.180398     7479.268 
 3060000   -203274.43     1.665406 -0.0039673958    62.235582    7492.5716 
 3065000   -203067.76    1.6751092 0.0051540499    62.201684      7505.92 
 3070000   -203128.25    1.7096383 -0.0021374886    62.241656    7519.1998 
 3075000   -203362.01    1.7357987 0.0016047327    62.098681    7532.4923 
 3080000   -203280.89    1.7176977 -0.0035360587    62.221669    7545.7872 
 3085000   -203201.59    1.7067376 0.0028860208    62.179961    7559.0463 
 3090000      -203084    1.7154529 -0.0043057213    62.325694    7572.3456 
 3095000   -203005.87    1.6786242 0.00068607846     62.34262    7585.6488 
 3100000   -203134.55    1.7111747 0.00050774037    62.300147     7598.962 
 3105000   -203219.94     1.664198 0.0027143506    62.247513    7612.2051 
 3110000   -203332.36     1.721867 0.0034059901     62.18638    7625.4948 
 3115000   -203212.12    1.7704161 -0.0026091173    62.311083    7638.8118 
 3120000   -203448.89    1.7095192 -3.8828545e-05     62.13756    7652.0938 
 3125000   -203271.69    1.7274078 -0.0020119677    62.304593    7665.3536 
 3130000   -203337.53    1.7046391 -0.0016599574     62.15852    7678.6248 
 3135000   -203143.05    1.6628216 0.0010925718     62.21745    7691.9187 
 3140000   -203325.96    1.7185216 0.0008921733    62.160427    7705.2086 
 3145000   -203381.85    1.6845225 -0.0041149914    62.139032    7718.5089 
 3150000   -203296.41    1.6588946 0.0040065512    62.113463    7731.7787 
 3155000   -203213.64    1.6844626 0.0015727338    62.239307    7745.0675 
 3160000   -203337.56    1.6801136 0.0038567892    62.183566     7758.321 
 3165000   -203075.92     1.673203 -0.0023099862    62.228006    7771.6257 
 3170000   -203364.54    1.7309292 0.0040196496    62.045578    7784.9044 
 3175000   -203068.61    1.6941097 0.0047025636    62.118957     7798.186 
 3180000   -203167.48    1.6580421 -0.0057893795    62.248517    7811.4738 
 3185000   -203108.05    1.7001519 0.0078611931    62.138904    7824.7542 
 3190000   -203059.52    1.6702996 0.0036999397    62.249823    7838.0212 
 3195000   -203344.85    1.6685971 0.0025032251    62.115816    7851.3376 
 3200000   -203370.42    1.7003668 -0.0020071063    62.247665     7864.648 
 3205000   -203395.49     1.712411 0.0078777635    62.016966    7877.9596 
 3210000   -203613.23    1.7396531 -0.0043339246    62.078303    7891.2861 
 3215000   -203596.87    1.7125063 -0.0028965323    62.094889    7904.6003 
 3220000   -203235.56     1.618493 0.0037135862    62.155847    7917.8873 
 3225000   -203388.71    1.7158569 -0.0029862693    62.186184    7931.1843 
 3230000   -203407.39    1.6854359 -0.0025616161    62.090316    7944.4883 
 3235000   -203633.33    1.6913408 0.00017941533    62.014396     7957.801 
 3240000   -203482.72    1.7337741 -0.0048459791     62.09672    7971.1066 
 3245000   -203525.98    1.6705574 -0.0018429209    62.079584    7984.4289 
 3250000   -203700.96    1.7233563 -0.0011074129    61.968465    7997.7359 
 3255000   -203925.23    1.7027777 -0.0018457275    61.944388    8011.0934 
 3260000   -203866.01    1.6818201 0.0013949268    61.961809    8024.4405 
 3265000    -203527.2    1.7272993 -0.0055396096    62.166098    8037.7338 
 3270000   -203515.58      1.69774 -0.0022584651    62.084146    8051.0493 
 3275000   -203702.96    1.7418975 -0.0037994136    62.009259    8064.3953 
 3280000   -203899.02    1.7727381 0.0011338625    61.896235    8077.7762 
 3285000   -204026.59    1.6958989 0.0041386258    61.778862    8091.1402 
 3290000   -203883.85    1.7157975 0.00037500518    61.953433    8104.4974 
 3295000    -203412.4    1.7188825 -0.0089851803    62.129933    8117.8539 
 3300000   -203703.23    1.6636011 -0.0034678335    62.023535    8131.2269 
 3305000   -203704.03    1.6811231 -0.0013167707    62.007841    8144.6084 
 3310000   -203602.42     1.696254 -0.0014230255    62.005979    8157.9263 
 3315000    -203510.3    1.6950981 -0.0033304116    62.011486    8171.2805 
 3320000   -203723.11    1.6816194 0.0015777106    61.940799    8184.6352 
 3325000   -203685.11    1.6516674 0.0062099746    61.857066    8197.9828 
 3330000   -203657.28    1.7078823 -0.0013060068    61.963086    8211.3375 
 3335000   -203591.73    1.7061154 -0.0011223432     62.01494    8224.7067 
 3340000   -203666.84     1.704584 0.0019844492    61.965314     8238.076 
 3345000   -203614.38    1.6866834 0.0029562783     61.96928    8251.4173 
 3350000   -203637.41    1.6834967 0.00017208027     61.96201    8264.7981 
 3355000   -203583.56    1.6995639 0.0081890198    61.820022     8278.183 
 3360000   -203698.47    1.7104344 -0.0015068738    61.955555    8291.5404 
 3365000   -203857.32    1.6383825 0.00093057873    61.887416    8304.8609 
 3370000   -203997.79    1.7100613 -0.0007575476    61.835014    8318.2223 
 3375000   -203999.84    1.7371132 -0.00063490732    61.831826    8331.5779 
 3380000   -203852.94    1.6793965 0.0032707819    61.906063    8344.9864 
 3385000   -203742.12    1.7178121 -0.0032369061    62.029596    8358.3029 
 3390000   -203741.63    1.6950424 0.0019735498    61.952831    8371.6831 
 3395000   -203493.07    1.6973044 -0.0015355597    62.020169    8385.0597 
 3400000   -203772.89    1.6869266 0.0028026085    61.881528     8398.454 
 3405000    -203982.2    1.7586858 0.0046019609    61.866832    8411.8322 
 3410000   -203880.58    1.6819098 0.0028980391     61.80085    8425.2259 
 3415000   -203968.57    1.6831942 -0.0079787452    62.004998    8438.5833 
 3420000   -203786.72    1.7024229 0.0032410915    61.915468    8451.9523 
 3425000   -203860.82    1.7373393 0.0030653439    61.918292    8465.2776 
 3430000   -203881.86    1.6660146 -0.0086610478    62.010946    8478.6797 
 3435000   -203636.51    1.7363982 0.0037479819    61.962015    8492.0384 
 3440000    -203678.7     1.704828 0.0064030492    61.950858    8505.4014 
 3445000   -203728.63    1.6881687 -0.0027563383    61.976628    8518.7497 
 3450000   -203848.87    1.6675502 0.0015243754    61.862489    8532.1564 
 3455000   -203849.33     1.667565 0.00081856293    61.890561    8545.5587 
 3460000   -203657.59    1.6543821 -0.0014947706    61.994077    8558.8996 
 3465000   -203870.52    1.7137839 0.0028416292    61.926146    8572.2465 
 3470000   -203843.81     1.746638 0.0016924483    61.915889    8585.6142 
 3475000   -203656.99    1.6889285 0.00037226259    61.955294    8598.9348 
 3480000   -203701.37    1.6935107 0.0028701418    61.966054    8612.2514 
 3485000   -203868.83    1.6741752  0.002835794    61.895003    8625.6288 
 3490000   -203598.21    1.7449707 -0.0028582987    62.030683    8638.9627 
 3495000   -203561.87    1.6817122 0.0057986359    61.919536    8652.2852 
 3500000   -203658.66    1.6778895 -0.0067913082    62.131424    8665.6212 
 3505000   -203513.59    1.7120424 -0.0066710276     62.11526    8679.0022 
 3510000   -203642.28    1.6371963 0.0048580664    61.941368    8692.3368 
 3515000   -203706.74    1.6798409  0.001293921    61.992099     8705.674 
 3520000   -203654.21    1.6630767 0.0016664243    61.934343     8718.998 
 3525000    -203666.8    1.7223297 -0.00099382626    62.004527     8732.314 
 3530000   -203756.04    1.6956976 0.0011287747    61.957049    8745.6335 
 3535000   -203813.05    1.6790273 0.0029612426    61.830448    8759.0077 
 3540000   -203706.09    1.7182676 0.0011587636    61.926233     8772.351 
 3545000   -203773.29    1.6932095 0.0069771854    61.809965    8785.7071 
 3550000   -203814.41    1.6939976 0.0063848965    61.848759    8799.0811 
 3555000   -203622.32    1.6910493 0.0016267082    61.946412     8812.414 
 3560000   -203701.19    1.6850721 -0.0083591179    62.028075    8825.7505 
 3565000   -203733.04    1.6883738 0.0020941236    61.903585    8839.1222 
 3570000   -203771.16    1.7234957 -0.0043592265    62.019886      8852.47 
 3575000    -203757.3    1.6707648 0.0067020574    61.866731     8865.824 
 3580000   -203622.46    1.7484525  0.000734291    61.895697    8879.1517 
 3585000   -203906.05    1.7147541 -0.0023288536    61.910056    8892.5355 
 3590000   -203870.32     1.702634 0.0015672562    61.880069     8905.895 
 3595000   -203724.88     1.714127 -0.00067252096    61.974382    8919.2568 
 3600000   -203845.63    1.6717447 -0.0015019224    61.957079    8932.5909 
 3605000   -203827.32    1.6711941 -0.0014214259    61.913726    8945.9271 
 3610000   -203705.96    1.6623743 0.0017533996    61.860381    8959.2944 
 3615000   -203858.44     1.713063 0.0027373457    61.864314    8972.6174 
 3620000   -203804.92    1.6992331 -0.00068133167    61.889237    8985.9484 
 3625000    -204008.7    1.7363649 0.00076093349     61.84983    8999.3025 
 3630000    -204003.4    1.7272568 0.0026090877    61.827649    9012.6792 
 3635000   -203760.53    1.7110638 -0.00070296653    61.921466    9026.0758 
 3640000   -203703.32    1.7234125 0.0032687611    61.914945    9039.4074 
 3645000   -203728.46    1.6997557 0.0039267473    61.912528     9052.759 
 3650000   -203828.88    1.6724378 0.0015012752    61.856007    9066.1275 
 3655000   -203874.97    1.6841502 0.0065563077    61.811066    9079.4939 
 3660000   -203852.01    1.6789411 -0.00045679967    61.926616    9092.8429 
 3665000   -204159.79    1.6863099 -0.00025998526    61.745874     9106.188 
 3670000   -203827.66    1.6529593 0.00057144788    61.880207    9119.5811 
 3675000   -203941.92    1.6846683 -0.0013228678     61.86089    9132.9405 
 3680000   -203613.61    1.6400086 -0.0037266959    62.028935    9146.2989 
 3685000   -203686.84     1.713859 -0.0039497348    62.042346    9159.6378 
 3690000   -203490.36    1.6685537 0.0054307766    61.948575     9172.985 
 3695000   -203873.01    1.6963706 0.0030531027    61.932844    9186.3182 
 3700000   -203423.28    1.6939694 -0.00051024775    62.085264    9199.6082 
 3705000   -203553.07    1.7272126 0.0016475068      62.0195    9212.9312 
 3710000   -203564.77      1.70322 0.0015236337     62.03325    9226.2492 
 3715000   -203596.42    1.6876532 -0.0019603499    62.039779    9239.5769 
 3720000   -203550.15    1.7740331 0.0012572978     62.10813    9252.8982 
 3725000    -203383.3    1.6813543 -0.00069262082    62.204122    9266.1584 
 3730000    -203476.2    1.7135682 0.0017101787    62.091814    9279.4485 
 3735000   -203603.49    1.7247139 -0.0048385672    62.215558    9292.7711 
 3740000   -203527.61    1.6926574  0.005326036     62.05442    9306.0752 
 3745000   -203533.03    1.7203368 -0.0013101496    62.109986    9319.4071 
 3750000    -203497.4    1.6772823 0.0051621201    62.062672    9332.7078 
 3755000   -203136.83    1.6627841 -0.0050976979    62.199077    9346.0448 
 3760000   -203330.93    1.7099231 -0.00095206439    62.201576    9359.3478 
 3765000   -203460.26    1.6713501 -0.00076877772    62.180066     9372.668 
 3770000   -203659.93    1.6955734 0.0028179725    62.045184    9385.9695 
 3775000   -203565.98    1.6774827 0.0071772966     61.97823    9399.3232 
 3780000   -203456.91    1.6816104 -0.0034218374     62.17387    9412.6679 
 3785000   -203284.06    1.7261915 -0.003892534    62.218194    9426.0021 
 3790000   -203320.11    1.6636022 -0.0030284931    62.163382    9439.3621 
 3795000   -203393.35    1.7102436 -0.0034692327    62.112006    9452.6514 
 3800000   -203620.52    1.6946795 -5.7971386e-05    62.023231     9466.014 
 3805000   -203555.32    1.7169253 0.0033951481    61.990301    9479.3383 
 3810000   -203462.94    1.6724954 0.0044427708     62.00298     9492.694 
 3815000   -203455.67    1.6807913 0.0044954361    61.969985    9506.0142 
 3820000   -203436.34    1.7067905 0.0045954926    61.935733    9519.4049 
 3825000    -203731.3    1.6960132 0.0043848517    61.904643    9532.7902 
 3830000   -203552.55    1.6704501 -0.0024094767    62.089293    9546.1511 
 3835000   -203495.59    1.7091755 -0.0028856397    62.063689    9559.5089 
 3840000   -203704.15    1.7345063 0.0014967298     61.96683    9572.7729 
 3845000   -203801.13    1.6885982 0.0080232822    61.860641    9586.1536 
 3850000   -203560.75    1.7012127 0.0036434166    61.966971    9599.5087 
 3855000   -203455.47     1.698545 -0.004154786    62.162804    9612.8542 
 3860000   -203560.09    1.7560697 0.0039511909    61.950275    9626.1886 
 3865000   -203561.33    1.7524498 -0.00072125678    62.095934    9639.5548 
 3870000    -203577.4    1.6826504 0.0036402815    61.992558    9652.8681 
 3875000   -203783.48    1.7098187 0.0010489954    61.901226    9666.2095 
 3880000   -203788.86    1.6775205  0.005045551    61.851514    9679.5837 
 3885000   -203692.45    1.6906522 0.0022929806    61.973253    9692.9201 
 3890000    -203688.5    1.6769777 0.00053059227    62.016488     9706.244 
 3895000   -203698.45     1.665165 -0.0008702727    62.017707    9719.5652 
 3900000    -203354.9    1.6717479 -0.00040032253     62.07428    9732.9033 
 3905000    -203441.9    1.6542916 -0.0005571182    62.119763    9746.2216 
 3910000   -203329.56    1.6971513 0.0028650872    62.090101    9759.5101 
 3915000    -203727.4    1.7181921 0.0045036204    61.840347     9772.876 
 3920000   -203725.38    1.6799536  0.005033553    61.850174    9786.2449 
 3925000   -203641.01    1.6977709 0.0044541832    61.877173    9799.6171 
 3930000   -203705.63    1.7211682 0.0038576659     61.85475    9812.9472 
 3935000   -203597.62    1.7227688 -0.0010940374    61.997902    9826.2987 
 3940000   -203699.21    1.6527032 -0.0023833178    62.019032    9839.6037 
 3945000   -203759.28    1.7195785 -0.0012509526    62.052946    9852.9292 
 3950000   -203711.88    1.6869114 -0.00033634929     62.01687    9866.2618 
 3955000   -203914.23    1.7128828 0.0039415109    61.904853    9879.6254 
 3960000   -203660.94    1.6918686 0.0038716933    61.942352    9893.0069 
 3965000    -203691.6    1.7370073 -0.00091974582    62.097754    9906.3324 
 3970000    -203586.5    1.7382318 -0.0015333762    62.106907    9919.6319 
 3975000   -203561.52    1.7087524 0.0011757407    62.039649    9932.9649 
 3980000   -203669.66    1.6327741 -0.0026276531    62.081643    9946.3265 
 3985000    -203665.6    1.7397129 0.0027960389    62.098624    9959.6506 
 3990000   -203475.98    1.6484206 -0.006136998    62.207819    9972.9573 
 3995000   -203659.98    1.7216168 -0.012204746    62.204087    9986.2935 
 4000000   -203681.76    1.6889927 -0.0041017006    62.094733     9999.612 
 4005000   -203561.75    1.6665173 0.0031657782    62.039052    10012.928 
 4010000   -203663.69    1.7110291 -0.00051142577    61.998222    10026.269 
 4015000   -203595.87     1.690779 -0.00065178536    62.025031    10039.575 
 4020000   -203665.25    1.6979012 0.00058592784    62.030302    10052.836 
 4025000   -203498.63    1.6926175 0.00049874462    62.129428    10066.172 
 4030000   -203363.02    1.6754077 -0.0032762135    62.209994    10079.481 
 4035000   -203440.47     1.685535 0.0062396387    62.037691    10092.801 
 4040000   -203514.95    1.6733585 0.0023269551    62.048792    10106.093 
 4045000   -203544.54    1.7701039 0.0021958734     62.07269    10119.433 
 4050000   -203645.53     1.713545 0.0047953631    61.955465    10132.766 
 4055000   -203437.05     1.627837 0.0036686335    61.999926    10146.094 
 4060000   -203567.84    1.6918765 -0.00018136692    62.072182    10159.397 
 4065000   -203460.44    1.6801277 -0.0046276787    62.096119    10172.733 
 4070000   -203669.37    1.7337146 0.0012366212    62.081225    10186.047 
 4075000   -203293.87    1.6819092 0.0013745932    62.118146    10199.383 
 4080000   -203628.64    1.7148421 -0.0033538223    62.093674    10212.728 
[...]
 9085000   -204124.02    1.7216134 0.0077037941    61.757349    23562.833 
 9090000   -204053.57    1.7566157 -0.00031917058    61.871974    23576.228 
 9095000   -204206.71    1.6999919 -0.00099292401    61.752482    23589.577 
 9100000   -203943.43    1.6709408 0.00024440149    61.876725     23602.99 
 9105000   -203982.89    1.7277723 -0.0029677056    61.890617    23616.354 
 9110000   -204034.81    1.6734884 -0.0042896655    61.907187    23629.722 
 9115000   -203773.42    1.7390831 0.0046370176    61.922295    23643.091 
 9120000   -203893.44    1.7012819 0.0038891062    61.946072    23656.422 
 9125000    -203774.1    1.6776201 0.0032576734    61.893678    23669.752 
 9130000   -203850.25     1.740851 -0.0052141304    61.974645    23683.055 
 9135000    -203813.3    1.6654706 -0.0017489017      61.9252    23696.425 
 9140000   -203822.35      1.67937 -0.0015235184    61.933359    23709.789 
 9145000   -203831.37    1.7405637 0.00029482906    61.879152    23723.134 
 9150000   -203775.77    1.6959351 -0.00059100286    61.991866    23736.531 
 9155000   -203669.84    1.7283335 0.00096357886    61.953633    23749.889 
 9160000   -203912.78    1.7226267 -0.0055282044    61.966263    23763.275 
 9165000      -203732    1.7590303 0.0057602093    61.876429     23776.58 
 9170000   -204003.05    1.6895548 -0.0031967359    61.836285    23789.924 
 9175000   -203925.41    1.6315631 0.0022830207    61.785812    23803.308 
 9180000   -203980.28    1.7176955 0.0015742501    61.864684    23816.687 
 9185000   -204077.41    1.7090244 -0.0010466278    61.794326    23830.054 
 9190000   -203992.38    1.7334228 0.0031281762    61.772674    23843.449 
 9195000   -203848.19    1.7443071 -0.00052814991    61.898909    23856.814 
 9200000   -203907.92    1.7011267 -0.0043675785    61.956873    23870.221 
 9205000   -203837.33    1.6851541 0.0003386397    61.921544    23883.588 
 9210000   -203960.33    1.7027772 -0.005581448    61.920356    23896.908 
 9215000   -203881.11    1.6763927 0.00081694873    61.872234     23910.29 
 9220000   -203953.87    1.7208592 -0.00071628916    61.921951    23923.701 
 9225000   -204015.89    1.7550531 0.0029134922    61.839622      23937.1 
 9230000   -203875.33    1.7094753 0.0056907315    61.846724    23950.504 
 9235000   -203987.71    1.6925891 0.00062875179    61.875069    23963.863 
 9240000    -204077.5    1.6616788 4.9429898e-05    61.832486    23977.256 
 9245000   -204244.67    1.7248252 0.00089520225    61.756587    23990.635 
 9250000   -204213.21    1.7326107 0.0039823832    61.724119    24004.069 
 9255000   -203804.89    1.6879798 -0.0017229653    61.898656     24017.41 
 9260000   -203813.67     1.695553 -0.010434073    61.981999    24030.806 
 9265000   -203802.79    1.7166698 -0.0019636013    61.915515    24044.216 
 9270000   -203701.61    1.6722732 -0.0048025348    61.988598    24057.598 
 9275000   -203692.34    1.7121791 -0.0013917489    61.932165    24071.001 
 9280000   -203680.21     1.693258 -0.0060418936    62.016149    24084.386 
 9285000   -203742.14    1.7374386 -0.0010307401    61.982408    24097.723 
 9290000    -203804.4    1.7026396   0.00243639    61.846351    24111.091 
 9295000   -204070.08    1.7115103 -0.0024672249    61.804451    24124.518 
 9300000   -204019.63    1.7178146 -0.0002270769    61.726312    24137.958 
 9305000   -203743.02    1.6989111 0.0036120441    61.798336    24151.354 
 9310000   -203845.46     1.698817 -0.0022830299     61.85356    24164.759 
 9315000   -203859.72    1.7177423 -0.0041096203    61.957138    24178.161 
 9320000   -203780.81    1.6946253 0.0047007053    61.947707    24191.505 
 9325000   -203653.68    1.6965303 -0.0016293381    62.003814    24204.829 
 9330000   -203630.26    1.7245995  0.002584612    61.934836    24218.161 
 9335000   -203865.39    1.6671704 -0.0044626221     61.86768    24231.519 
 9340000   -203862.63    1.6776448 0.0039016718    61.758448    24244.922 
 9345000    -203978.7    1.6760277 0.00087842287    61.755184    24258.318 
 9350000   -203723.39    1.6697316 -0.0012212794    61.845099    24271.657 
 9355000   -204061.08    1.6922353 0.00071223924    61.753995    24285.055 
 9360000   -203782.63    1.6332381 -0.0045286477    61.895575     24298.39 
 9365000   -203645.72    1.7064276 -0.00093452187     61.94224    24311.759 
 9370000   -203684.04    1.6931591 -0.0011247135    61.919547    24325.118 
 9375000   -203706.21    1.7110708 0.0036446895    61.856216    24338.423 
 9380000   -203680.86    1.6440973 0.0041365148      61.9273    24351.768 
 9385000   -203607.58    1.7151747 -0.0059114165    62.057214    24365.099 
 9390000    -203779.6    1.7070848 0.0011002272    61.836509    24378.475 
 9395000   -203481.54    1.6833554 -0.0024752596    62.057858    24391.797 
 9400000   -203514.26    1.6911717 -0.00040076903    62.019115    24405.128 
 9405000   -203400.16    1.6860341 -0.0063105521    62.132868    24418.447 
 9410000   -203529.75    1.7141515 0.0034126223    61.991768    24431.769 
 9415000   -203532.97    1.6900407 0.0063467323    61.892553    24445.098 
 9420000    -203345.7    1.6982635 -0.0065216351    62.206025    24458.389 
 9425000   -203544.25    1.7128214 0.00096515456    62.013754    24471.743 
 9430000   -203649.25    1.6467107 -0.010704173    62.092686    24485.065 
 9435000   -203739.12    1.7401303 0.0018599951    61.989644    24498.416 
 9440000   -203567.94    1.6876618 0.0071841443     61.93282    24511.793 
 9445000   -203508.99    1.7283831 0.0023832094    61.999483    24525.176 
 9450000   -203468.36    1.6597157 0.00089569794    62.023929    24538.497 
 9455000   -203673.42    1.6560384 -0.0018854894    62.011283    24551.852 
 9460000   -203615.62    1.7229518 0.0028680786    61.976105    24565.158 
 9465000   -203550.27    1.6674053 -0.00072633597    61.981863     24578.51 
 9470000   -203593.96    1.6722785 0.0027945589    61.873997    24591.851 
 9475000    -203629.3    1.6406534 -0.0016021196    61.990221    24605.199 
 9480000   -203504.75     1.717737 0.0048699722    61.969559    24618.526 
 9485000   -203502.99    1.7231805 -0.001497983    62.000774    24631.838 
 9490000   -203453.27    1.7147977 -0.0016331124    61.945144    24645.157 
 9495000   -203546.86    1.7104391 0.0030869858    62.011036     24658.48 
 9500000    -203422.2    1.6785004 0.0048859948    62.020269     24671.79 
 9505000   -203386.11    1.6723498  -0.01039453    62.236604    24685.143 
 9510000   -203333.37    1.7298825 -0.0037787706    62.232144    24698.466 
 9515000   -203593.91    1.6938368 0.0019817934    62.042774    24711.808 
 9520000   -203610.84    1.7327661 0.00040929335    62.145345    24725.159 
 9525000   -203490.38    1.7276628 0.0052447043    62.094046    24738.469 
 9530000   -203252.28    1.7271064 -0.0022771752    62.233351    24751.754 
 9535000   -203341.25    1.6593433 0.0022055708    62.085174    24765.075 
 9540000   -203342.97    1.6907751 0.00075769789    62.203573    24778.377 
 9545000   -203316.99    1.6821832 0.0037006147     62.20348    24791.626 
 9550000   -203316.05    1.7199529 -5.1079581e-05    62.250776    24804.913 
 9555000    -203259.9    1.7361344 0.00068469261    62.264291    24818.183 
 9560000   -203240.54     1.698843 -0.0015564408    62.304205    24831.478 
 9565000   -202957.55    1.6571373 -0.0036581714    62.373315     24844.72 
 9570000   -203343.25    1.7071104 0.0039635966    62.164157    24857.981 
 9575000   -203290.87    1.7082411 0.0019207614    62.177022    24871.235 
 9580000   -203490.34    1.6307057 -0.0048315109     62.14191    24884.515 
 9585000   -203525.93    1.6880686 -0.00027683415    62.101756    24897.789 
 9590000   -203494.17    1.7042751 -0.00041806053    62.118005    24911.134 
 9595000   -203422.24    1.7003087 0.0033037196     62.09907    24924.438 
 9600000   -203401.83    1.7043188 -0.0077888539    62.264104    24937.734 
 9605000    -203341.3    1.6787014 0.0062756084    62.085236    24951.014 
 9610000   -203534.93    1.7039576 0.0015907655    62.021986    24964.339 
 9615000   -203622.09    1.6820199 0.0049151496    61.938732    24977.657 
 9620000   -203598.75    1.6830751 -0.0071064384    62.099785    24991.009 
 9625000   -203917.14    1.6632145 0.00061807251    61.953959     25004.33 
 9630000   -203485.55    1.6924057 -0.0077901526    62.124495     25017.67 
 9635000   -204007.96    1.7224551 0.0069466372    61.768278    25031.004 
 9640000   -203798.42     1.699568 -0.002681965     61.88894    25044.349 
 9645000   -204031.36    1.7196606 -0.0011514372    61.817877     25057.71 
 9650000   -204034.85    1.7136667 -0.0020466235      61.8642    25071.079 
 9655000   -203904.93    1.6909409 -0.0044025521    61.930603    25084.458 
 9660000   -203906.94    1.7105333 -0.0011980847    61.817613    25097.825 
 9665000   -203812.09    1.7203814 -0.0032902626    61.846144    25111.232 
 9670000   -203751.93     1.708128 -0.0039772871     61.87097    25124.577 
 9675000   -203982.52    1.6861244 0.0041588906    61.727809    25137.957 
 9680000   -203807.03    1.6782634 -0.003226465     61.94881    25151.369 
 9685000   -203833.72     1.664241 -0.0041458501    61.946534    25164.729 
 9690000   -203996.01    1.6948029 -0.0014212213    61.813584    25178.148 
 9695000   -203938.12    1.7383209 0.0014937913    61.848867    25191.568 
 9700000   -203788.25    1.7064709 0.00021672828    61.876827    25204.958 
 9705000   -204069.82    1.6884811 -0.002408921    61.881123     25218.33 
 9710000   -203983.12    1.6728849 -0.0045498427    61.901361    25231.737 
 9715000   -203817.96    1.7023095 0.0031715062    61.840122    25245.112 
 9720000    -203589.3    1.7009418 -0.0023831542    62.045357    25258.442 
 9725000   -204001.14    1.6996986 -0.0024335401    61.937495    25271.801 
 9730000   -203755.02    1.6993082 0.0015360402     61.91419    25285.139 
 9735000   -203757.22    1.7181931 0.0035746991    61.957311    25298.535 
 9740000   -203511.42    1.6703068 -0.0018462424     62.07946     25311.87 
 9745000   -203822.96    1.6862617 -0.0015200637    61.986065    25325.218 
 9750000   -203830.58    1.6831931 -0.0059637135    62.009056    25338.578 
 9755000   -203613.68    1.7309152 0.0022450147    62.015327    25351.867 
 9760000   -203553.73    1.6966331 0.00089926484    62.072395    25365.168 
 9765000   -203488.02    1.6850468 -0.0050896024    62.144498    25378.494 
 9770000   -203584.36     1.772432 -0.0046003605    62.085044     25391.84 
 9775000   -203568.17    1.7402595 -0.00016262654    62.072047    25405.173 
 9780000   -203679.24    1.7227971 -0.0041147764    62.088161    25418.489 
 9785000   -203571.31    1.7197305 0.0082424424    61.916408    25431.816 
 9790000   -203429.32    1.6737517 0.0058678695     61.98273    25445.166 
 9795000   -203419.02    1.7195646 0.0023154791    62.135115    25458.485 
 9800000   -203592.88    1.7417173 -0.0018863768     62.14962    25471.794 
 9805000   -203506.98    1.7175949 -0.0028090559    62.104488     25485.13 
 9810000   -203432.23    1.6816752 -0.0052082916    62.154973    25498.456 
 9815000   -203522.65    1.6897704 -0.0024243748    62.129429    25511.775 
 9820000    -203270.8    1.6957433 -0.0031420501    62.178783    25525.075 
 9825000   -203373.97    1.7278338 -0.0010966066    62.188063     25538.34 
 9830000    -203260.7    1.6736785 0.0010414388    62.210636    25551.627 
 9835000   -203134.16    1.7174543 0.0006505337     62.18891    25564.902 
 9840000    -203426.7    1.6929065 0.0002569831    62.122418    25578.201 
 9845000   -203562.06    1.7414891 -0.00021836097     62.13152    25591.516 
 9850000   -203521.92    1.7423704 -0.0067975126    62.180472    25604.828 
 9855000   -203378.63    1.7438481 0.0024278957    62.116364    25618.177 
 9860000   -203167.35    1.7104832 -0.00076675612    62.243808    25631.437 
 9865000   -203394.92    1.6879456 -0.00045640219    62.245897    25644.722 
 9870000   -203259.26    1.7206226 0.0035231758    62.127886     25658.02 
 9875000   -203213.04    1.6965543 0.0037285624    62.178694    25671.323 
 9880000   -203666.62    1.7193912 0.00095855833    62.041625    25684.644 
 9885000   -203443.45    1.7123884 0.0019310973    62.087855    25697.931 
 9890000    -203629.2    1.6792498 -0.0011294051     62.02748    25711.243 
 9895000   -203296.39    1.6898619 -0.0053113295    62.241563    25724.604 
 9900000   -203432.27    1.6754679 0.0023105649    62.092079    25737.895 
 9905000   -203404.49    1.6522994 0.0039196779    62.070369    25751.201 
 9910000   -203607.59    1.7321807 -0.0043212918    62.110984    25764.558 
 9915000   -203577.39    1.6768631 -0.00050855824    62.053672     25777.89 
 9920000    -203559.1    1.6837546 -0.003312122    62.104101    25791.228 
 9925000   -203351.48    1.6792842 -0.00023777159    62.146271    25804.531 
 9930000    -203466.3    1.6839339 -0.00053174806    62.094628    25817.827 
 9935000   -203517.85    1.7332106 -0.00060085634    62.084212    25831.142 
 9940000   -203742.05     1.710637 0.0017933214    62.029093    25844.462 
 9945000   -203721.36    1.6421767 -0.0020062111     62.04022    25857.753 
 9950000   -203513.95    1.7219297  0.005805308    62.002668    25871.068 
 9955000   -203651.93    1.7101747 0.0021664184    62.005922    25884.416 
 9960000    -203530.8    1.7047836 0.0042205209    62.111649     25897.73 
 9965000   -203404.98    1.7169947 -0.00016739607    62.134956    25911.017 
 9970000   -203742.72    1.7262838 -0.00030653379    61.965848    25924.358 
 9975000   -203718.18    1.6759575 0.0035916283    61.941444    25937.696 
 9980000   -203800.99    1.6752369 -0.0012046851    61.991459    25951.014 
 9985000   -203704.56    1.7678448 -0.0034051085    62.008009    25964.332 
 9990000    -203698.7    1.7404746 -0.001956458    61.983815    25977.706 
 9995000   -203846.27    1.7173059  -0.00101328    61.951015    25991.048 
10000000   -203869.93    1.7157515 -0.0010337031    61.885801    26004.394 
10005000   -203870.72     1.662581 0.0009517302    61.842059    26017.801 
10010000   -203810.65    1.7208031 -0.0060499317    61.872926    26031.199 
10015000   -203820.75    1.7235428  0.010652178    61.745413    26044.606 
10020000   -204062.77    1.6921426 0.0013262367    61.809014     26058.02 
10025000   -203791.78    1.7236364 -0.0054543958    61.932943    26071.426 
10030000   -203943.77    1.6926923 -0.0025542881    61.956552    26084.785 
10035000    -203816.9    1.6728554 -0.0014872155    61.926024    26098.115 
10040000   -203975.52    1.7162092 -0.003114348    61.957218    26111.464 
10045000   -204049.17    1.6650643 0.00085626734    61.802383    26124.844 
10050000   -204108.42    1.7221033 0.0011851207    61.748525     26138.23 
10055000   -203740.11    1.7320622 -0.0022338623    61.975049    26151.638 
10060000   -203969.44    1.6694202 -0.0020442964    61.944059    26165.017 
10065000   -204142.34     1.693115  0.003420558    61.782197     26178.44 
10070000   -203935.52    1.7074982 0.0080291375    61.767132    26191.851 
10075000   -203933.51    1.6889502 0.00060624098    61.846155    26205.222 
10080000   -204012.87    1.6902577 0.0044898953    61.778953    26218.667 
10085000   -204149.01    1.7112963 0.0038042353    61.733947    26232.074 
10090000   -204066.49    1.7181078 -0.0034447261    61.869403    26245.452 
10095000    -203737.5    1.7142189 0.0011754347    61.926878    26258.826 
10100000   -204206.38     1.663117 -4.4741849e-05     61.79744    26272.187 
10105000   -204147.25    1.6539354  0.006185692    61.710056    26285.614 
10110000   -203954.89    1.7476223 -0.0015402671    61.907437    26299.008 
10115000   -203996.79    1.7056936 -0.0012753605    61.882061    26312.432 
10120000   -203756.91    1.6724548 -0.0030129209    61.951238    26325.803 
10125000   -203944.46    1.7163485 -0.0015852699    61.870578    26339.153 
10130000   -203896.47    1.6483644 -0.002011545    61.885326    26352.502 
10135000   -203861.83     1.716682 0.00041305037    61.892547    26365.868 
10140000   -204060.63    1.6499802 -0.0023232752    61.902827    26379.251 
10145000      -204064    1.6805342 -0.0075083385    61.962876    26392.608 
10150000   -203707.09    1.7187047 -0.0042881006     62.01423    26405.933 
10155000   -203886.52    1.7131744 -0.001923337    61.896009    26419.312 
10160000   -203823.43    1.7260995 0.0010343964     61.91778    26432.688 
10165000   -203905.14    1.6986578 0.0036064386    61.867333    26446.064 
10170000   -203885.33    1.7007659 -0.0015255801    61.909282    26459.475 
10175000   -203678.59    1.7037387 -0.00088631834    61.974555    26472.819 
10180000   -203822.44    1.7166239 0.0021510791    61.917673    26486.123 
10185000   -203764.42      1.65204 -0.0025761473    62.028925     26499.46 
10190000    -203496.2    1.6880824 0.0062939506    61.972683    26512.745 
10195000   -203803.13      1.68409 -0.0046798818    61.998875    26526.026 
10200000   -203773.89    1.6608431 -0.0024665433    61.944683    26539.348 
10205000   -203638.81    1.7758346 -0.0049657194    62.053687    26552.701 
10210000   -203621.91    1.6517455  0.006597953    61.900676    26566.056 
10215000   -203511.44    1.7189864 0.0014747929    61.970831    26579.423 
10220000   -203639.18    1.6988978 0.0020948054    61.970501    26592.755 
10225000    -203766.4    1.7197735 -0.0017660603    62.028012    26606.064 
10230000   -203765.37    1.7269645 -0.0039140287    62.003051    26619.453 
10235000   -203787.52    1.6914168 -0.0036170322    61.971425    26632.785 
10240000   -203762.21    1.6907709 0.00045139584    61.950353     26646.11 
10245000    -203885.2     1.702549 0.0020316781    61.881449    26659.493 
10250000   -203684.82    1.6815194 -0.0014107301    61.939864    26672.822 
Loop time of 26672.8 on 8 procs for 10000000 steps with 2304 atoms

Performance: 32392.523 tau/day, 374.913 timesteps/s
94.6% CPU use with 8 MPI tasks x 1 OpenMP threads

MPI task timing breakdown:
Section |  min time  |  avg time  |  max time  |%varavg| %total
---------------------------------------------------------------
Pair    | 4823       | 5352.8     | 5811.2     | 398.8 | 20.07
Bond    | 1.0838     | 1.1989     | 1.5631     |  13.3 |  0.00
Kspace  | 10824      | 10922      | 11030      |  86.5 | 40.95
Neigh   | 673.15     | 677.01     | 691.77     |  22.1 |  2.54
Comm    | 1133       | 1150.4     | 1170.3     |  34.9 |  4.31
Output  | 0.87537    | 0.90437    | 1.1037     |   7.9 |  0.00
Modify  | 6470.8     | 7838.1     | 8683.1     | 877.4 | 29.39
Other   |            | 730.4      |            |       |  2.74

Nlocal:        288.000 ave         294 max         281 min
Histogram: 1 0 0 2 0 1 2 1 0 1
Nghost:        6847.62 ave        6865 max        6830 min
Histogram: 1 2 0 0 1 1 0 0 2 1
Neighs:         0.00000 ave           0 max           0 min
Histogram: 8 0 0 0 0 0 0 0 0 0
FullNghs:      285704.0 ave      292107 max      278029 min
Histogram: 1 0 0 2 0 1 1 2 0 1

Total # of neighbors = 2285632
Ave neighs/atom = 992.02778
Ave special neighs/atom = 0.0000000
Neighbor list builds = 77639
Dangerous builds = 0

## ----- deletion for small NPs and salt ----- ##
#    reset_timestep 0

#    label checking

#    compute     peatom    all   pe/atom
#    variable    exppe    atom    exp(2*c_peatom/${ttemp})
#    compute     aveS    small   reduce ave v_exppe
#    compute     aveCl   anion   reduce ave v_exppe
#    compute     aveNa   cation  reduce ave v_exppe

#    fix AVE all ave/time 5 ${repeat} ${freq} c_aveS c_aveCl file average.dat
#    thermo 10000
#    thermo_style custom step pe c_press lx cpu
#    thermo_modify norm no flush yes
#    fix AVE all ave/time 1 ${repeat} ${freq} c_aveS c_aveCl c_aveNa
#    variable    chempNP equal ${ttemp}*(ln(v_numS/vol)+ln(v_numCl/vol)*25+ln(f_AVE[1])+ln(f_AVE[2])*25)
#    variable    chempS  equal ${ttemp}*(ln(v_numNa/vol)+ln(v_numCl/vol)+ln(f_AVE[2])+ln(f_AVE[3]))
#    timestep 0.0005
#    run ${freq}

#    print "done! ChempNP= ${chempNP}" append potential.dat
Total wall time: 7:45:22
