LAMMPS (27 Oct 2021)
OMP_NUM_THREADS environment is not set. Defaulting to 1 thread. (src/comm.cpp:98)
  using 1 OpenMP thread(s) per MPI task
package gpu 0
package gpu 2 neigh no pair/only on
#Lammps gcmc code for electrolytes

## ----- Simulation times ----- ##
    variable t_nve      equal 50000             #nve/limit
    variable t_deform 	equal 50000            #nvt
    variable t_pressed 	equal 50000            #nvt
    variable t_relaxed 	equal 100000            #nvt
    variable t_eq 	equal 10000000           #nvt

    variable smallc	equal 10
    variable bigc	equal -80
    variable numB	equal 256
    variable numS	equal ${numB}*8
    variable numS	equal 256*8
#    variable numCl	equal ${numS}*${smallc}+${bigc}*${numB}

## ----- Environment setting ----- ##
    boundary p p p
    atom_style full

## ----- System Variables  ----- ##
    variable    ttemp       equal   $b          	#reduced temperature
    variable    ttemp       equal   1.62          	
    variable    ppress      equal   0			#osmetic pressure
    variable    cutoff_pppm equal   27.8	        #cutoff for the real part of pppm
    variable	ipress      equal   0.1

    variable    bigd        equal   10                      #LJ sigmas
    variable    smalld      equal   2
#    variable    Cl_d        equal   0.4
    variable    d_bs        equal   0.5*(${bigd}+${smalld})
    variable    d_bs        equal   0.5*(10+${smalld})
    variable    d_bs        equal   0.5*(10+2)
#    variable    d_sNa       equal   0.5*(v_smalld+v_Na_d)
#    variable    d_sCl       equal   0.5*(v_smalld+v_Cl_d)
#    variable    d_bNa       equal   0.5*(v_bigd+v_Na_d)
#    variable    d_bCl       equal   0.5*(v_bigd+v_Cl_d)
#    variable    d_NaCl      equal   0.5*(v_Na_d+v_Cl_d)

    variable    cut_small   equal   ${smalld}*1.122462	    #cutoffs for LJ
    variable    cut_small   equal   2*1.122462	    
    variable    cut_big     equal   ${bigd}*1.122462
    variable    cut_big     equal   10*1.122462
#    variable    cut_Na_d    equal   ${Na_d}*1.122462
#    variable    cut_Cl_d    equal   ${Cl_d}*1.122462
    variable    cut_bs      equal   ${d_bs}*1.122462
    variable    cut_bs      equal   6*1.122462
#    variable    cut_bNa     equal   ${d_bNa}*1.122462
#    variable    cut_bCl     equal   ${d_bCl}*1.122462
#    variable    cut_sNa     equal   ${d_sNa}*1.122462
#    variable    cut_sCl     equal   ${d_sCl}*1.122462
#    variable    cut_NaCl    equal   ${d_NaCl}*1.122462

## ----- Initialization and grouping ----- ##
    read_data config_fcc8.dat
Reading data file ...
  orthogonal box = (-80.000000 -80.000000 -80.000000) to (80.000000 80.000000 80.000000)
  2 by 2 by 2 MPI processor grid
  reading atoms ...
  2304 atoms
Finding 1-2 1-3 1-4 neighbors ...
  special bond factors lj:    0        0        0       
  special bond factors coul:  0        0        0       
     0 = max # of 1-2 neighbors
     0 = max # of 1-3 neighbors
     0 = max # of 1-4 neighbors
     1 = max # of special neighbors
  special bonds CPU = 0.016 seconds
  read_data CPU = 0.112 seconds

    set type 1 charge   ${bigc}    	#large NPs
    set type 1 charge   -80    	
Setting atom values ...
  256 settings made for charge
    set type 2 charge   ${smallc}       #small NPs
    set type 2 charge   10       
Setting atom values ...
  2048 settings made for charge
#    set type 3 charge   1       #Na+
#    set type 3 charge   -1      #Cl-

    mass    *   0.2
    mass    1   25.0

    group big       type 1
256 atoms in group big
    group small     type 2
2048 atoms in group small
#    group cation    type 3
#    group anion     type 3

## ----- Interaction setting ----- ##
    pair_style lj/cut/coul/long ${cut_big} ${cutoff_pppm} #lj/cut/coul/long/soft 2.0 0.5 5.0 ${cut_small} ${cutoff_pppm}
    pair_style lj/cut/coul/long 11.22462 ${cutoff_pppm} 
    pair_style lj/cut/coul/long 11.22462 27.8 
    #Between regular particles (4*5/2=10)
    pair_coeff  1   1   2.0     ${bigd}     ${cut_big}	        # big-big
    pair_coeff  1   1   2.0     10     ${cut_big}	        
    pair_coeff  1   1   2.0     10     11.22462	        
    pair_coeff  2   2   2.0     ${smalld}   ${cut_small}	    # small-small
    pair_coeff  2   2   2.0     2   ${cut_small}	    
    pair_coeff  2   2   2.0     2   2.244924	    
#    pair_coeff  3   3   2.0     ${Na_d}     ${cut_Na_d}		    # Na-Na
#    pair_coeff  3   3   2.0     ${Cl_d}     ${cut_Cl_d}       	# Cl-Cl
    pair_coeff  1   2   2.0     ${d_bs}     ${cut_bs}	        # big-small
    pair_coeff  1   2   2.0     6     ${cut_bs}	        
    pair_coeff  1   2   2.0     6     6.734772	        
#    pair_coeff  1   3   2.0     ${d_bNa}    ${cut_bNa}	        # big-Na
#    pair_coeff  1   3   2.0     ${d_bCl}    ${cut_bCl}	        # big-Cl
#    pair_coeff  2   3   2.0     ${d_sNa}    ${cut_sNa}       	# small-Na
#    pair_coeff  2   3   2.0     ${d_sCl}    ${cut_sCl}       	# small-Cl
#    pair_coeff  3   4   2.0     ${d_NaCl}   ${cut_NaCl}       	# Na-Cl
#    pair_modify pair lj/cut/coul/long shift yes
    pair_modify shift yes
    kspace_style	pppm	5.0e-4

## ----- Simulation setup ----- ##
    neighbor 1.2 bin
    neigh_modify delay 0 every 1 check yes #one 2000

    compute temp all temp
    compute press all pressure temp

    thermo 5000
    thermo_style custom step pe temp c_press lx cpu
    thermo_modify norm no flush yes

   # dump moldump all custom 50000 ${xyzname} id type q x y z

## ----- Thermalization of system ----- ##
    timestep 0.0002

    fix 1 all nve/limit 0.05
    fix 2 big langevin ${ttemp} ${ttemp} 0.2 1234567
    fix 2 big langevin 1.62 ${ttemp} 0.2 1234567
    fix 2 big langevin 1.62 1.62 0.2 1234567
    fix 3 small langevin ${ttemp} ${ttemp} 0.008 123456
    fix 3 small langevin 1.62 ${ttemp} 0.008 123456
    fix 3 small langevin 1.62 1.62 0.008 123456

    fix freeze big setforce 0.0 0.0 0.0
    fix zeromom all momentum 1 linear 1 1 1 angular
    run ${t_nve}
    run 50000

CITE-CITE-CITE-CITE-CITE-CITE-CITE-CITE-CITE-CITE-CITE-CITE-CITE

Your simulation uses code contributions which should be cited:

- GPU package (short-range, long-range and three-body potentials):

@Article{Brown11,
 author = {W. M. Brown, P. Wang, S. J. Plimpton, A. N. Tharrington},
 title = {Implementing Molecular Dynamics on Hybrid High Performance Computers - Short Range Forces},
 journal = {Comp.~Phys.~Comm.},
 year =    2011,
 volume =  182,
 pages =   {898--911}
}

@Article{Brown12,
 author = {W. M. Brown, A. Kohlmeyer, S. J. Plimpton, A. N. Tharrington},
 title = {Implementing Molecular Dynamics on Hybrid High Performance Computers - Particle-Particle Particle-Mesh},
 journal = {Comp.~Phys.~Comm.},
 year =    2012,
 volume =  183,
 pages =   {449--459}
}

@Article{Brown13,
 author = {W. M. Brown, Y. Masako},
 title = {Implementing Molecular Dynamics on Hybrid High Performance Computers – Three-Body Potentials},
 journal = {Comp.~Phys.~Comm.},
 year =    2013,
 volume =  184,
 pages =   {2785--2793}
}

@Article{Trung15,
 author = {T. D. Nguyen, S. J. Plimpton},
 title = {Accelerating dissipative particle dynamics simulations for soft matter systems},
 journal = {Comput.~Mater.~Sci.},
 year =    2015,
 volume =  100,
 pages =   {173--180}
}

@Article{Trung17,
 author = {T. D. Nguyen},
 title = {GPU-accelerated Tersoff potentials for massively parallel Molecular Dynamics simulations},
 journal = {Comp.~Phys.~Comm.},
 year =    2017,
 volume =  212,
 pages =   {113--122}
}

@Article{Nikolskiy19,
 author = {V. Nikolskiy, V. Stegailov},
 title = {GPU acceleration of four-site water models in LAMMPS},
 journal = {Proceeding of the International Conference on Parallel Computing (ParCo 2019), Prague, Czech Republic},
 year =    2019
}

CITE-CITE-CITE-CITE-CITE-CITE-CITE-CITE-CITE-CITE-CITE-CITE-CITE

PPPM initialization ...
  using 12-bit tables for long-range coulomb (src/kspace.cpp:340)
  G vector (1/distance) = 0.11438956
  grid = 60 60 60
  stencil order = 5
  estimated absolute RMS force accuracy = 0.00041211524
  estimated relative force accuracy = 0.00041211524
  using double precision KISS FFT
  3d grid and FFT values/proc = 42875 28800
  generated 0 of 1 mixed pair_coeff terms from geometric mixing rule
Neighbor list info ...
  update every 1 steps, delay 0 steps, check yes
  max neighbors/atom: 2000, page size: 100000
  master list distance cutoff = 29
  ghost atom cutoff = 29
  binsize = 14.5, bins = 12 12 12
  1 neighbor lists, perpetual/occasional/extra = 1 0 0
  (1) pair lj/cut/coul/long/gpu, perpetual
      attributes: full, newton off
      pair build: full/bin
      stencil: full/bin/3d
      bin: standard
Per MPI rank memory allocation (min/avg/max) = 11.45 | 11.54 | 11.62 Mbytes
Step PotEng Temp c_press Lx CPU 
       0 1.7992005e+08            0    175.78446          160            0 
    5000   -68302.146    1.4488475 -0.0043468985          160     39.64606 
   10000    -73910.43    1.5147054 -0.0043677527          160    79.223956 
   15000   -78525.515    1.4171415 -0.0044525985          160    118.67029 
   20000   -82687.972    1.4851629 -0.0043733183          160    158.18612 
   25000    -86365.02    1.4673856 -0.0044420136          160    197.65184 
   30000   -89660.569    1.4427161 -0.004433989          160    237.15657 
   35000   -92718.427    1.4591277 -0.0044538809          160    276.64677 
   40000   -95694.177    1.4660603 -0.0044047432          160    316.14175 
   45000    -98485.14    1.4840654 -0.0042870633          160     355.6475 
   50000    -101232.4    1.4196851 -0.0041462956          160    395.16743 
Loop time of 395.168 on 8 procs for 50000 steps with 2304 atoms

Performance: 2186.414 tau/day, 126.529 timesteps/s
99.6% CPU use with 8 MPI tasks x 1 OpenMP threads

MPI task timing breakdown:
Section |  min time  |  avg time  |  max time  |%varavg| %total
---------------------------------------------------------------
Pair    | 8.9308     | 9.3724     | 9.7979     |  11.3 |  2.37
Bond    | 0.0055043  | 0.0082124  | 0.010996   |   1.9 |  0.00
Kspace  | 379.12     | 379.73     | 380.35     |   2.2 | 96.09
Neigh   | 0.057766   | 0.06461    | 0.072929   |   2.0 |  0.02
Comm    | 2.3841     | 2.6578     | 3.088      |  14.5 |  0.67
Output  | 0.00034462 | 0.00054602 | 0.0019225  |   0.0 |  0.00
Modify  | 2.781      | 2.8371     | 2.9408     |   3.2 |  0.72
Other   |            | 0.4967     |            |       |  0.13

Nlocal:        288.000 ave         313 max         259 min
Histogram: 2 0 0 0 1 2 1 0 0 2
Nghost:        1337.12 ave        1365 max        1300 min
Histogram: 1 0 2 0 0 1 0 1 2 1
Neighs:         0.00000 ave           0 max           0 min
Histogram: 8 0 0 0 0 0 0 0 0 0
FullNghs:      16547.0 ave       19018 max       14081 min
Histogram: 2 0 0 1 0 3 0 0 0 2

Total # of neighbors = 132376
Ave neighs/atom = 57.454861
Ave special neighs/atom = 0.0000000
Neighbor list builds = 69
Dangerous builds = 0

#    compute     peatom      all     pe/atom
#    variable    exppe       atom    exp(2*c_peatom/${ttemp})
#    compute     aveS        small   reduce ave v_exppe
#    compute     aveCl       anion   reduce ave v_exppe
#    compute     aveNa       cation  reduce ave v_exppe
#    thermo ${every}
#    thermo_style custom step pe temp lx vol c_aveS c_aveCl c_aveNa cpu
#    thermo_modify norm no flush yes
#    variable    chempNP     equal   temp*(ln(2304/vol)+ln(18300/vol)*10+ln(c_aveS)+ln(c_aveCl)*10)
#    variable    chempS      equal   temp*(ln(5500/vol)+ln(18300/vol)+ln(c_aveNa)+ln(c_aveCl))
#    label checking
#    run ${every}
#    if "${chempNP}>${mu_np}" then 'print "ChempNP=${chempNP}; expel"' "jump gcmc.in checking" else 'print "done!"'

    fix deforming all deform 10 x final -33 33 y final -33 33 z final -33 33 remap x
    run ${t_deform}
    run 50000
PPPM initialization ...
  using 12-bit tables for long-range coulomb (src/kspace.cpp:340)
  G vector (1/distance) = 0.11438956
  grid = 60 60 60
  stencil order = 5
  estimated absolute RMS force accuracy = 0.00041211524
  estimated relative force accuracy = 0.00041211524
  using double precision KISS FFT
  3d grid and FFT values/proc = 42875 28800
  generated 0 of 1 mixed pair_coeff terms from geometric mixing rule
Per MPI rank memory allocation (min/avg/max) = 11.45 | 11.54 | 11.62 Mbytes
Step PotEng Temp c_press Lx CPU 
   50000    -101232.4    1.4196851 -0.0041462956          160            0 
   55000   -107603.92    1.4568557 -0.0037206925        150.6    42.065992 
   60000   -114340.22    1.4470854 -0.0039263366        141.2    84.219803 
   65000   -121672.23    1.4536582 -0.0037404699        131.8    126.47697 
   70000   -129637.08    1.4297222 -0.0039306173        122.4    168.72518 
   75000   -138144.82     1.476531 -0.0024874817          113    211.04425 
   80000   -146676.26    1.4337351  0.001927229        103.6    253.50587 
   85000   -155080.99    1.4350413  0.011773031         94.2    295.98193 
   90000    -163581.6    1.4902399  0.031318538         84.8    338.67198 
   95000   -172001.69    1.4622746  0.074030866         75.4    381.52399 
  100000   -181811.02    1.5198792   0.17293718           66    424.67359 
Loop time of 424.674 on 8 procs for 50000 steps with 2304 atoms

Performance: 2034.503 tau/day, 117.737 timesteps/s
99.6% CPU use with 8 MPI tasks x 1 OpenMP threads

MPI task timing breakdown:
Section |  min time  |  avg time  |  max time  |%varavg| %total
---------------------------------------------------------------
Pair    | 9.6501     | 10.101     | 10.531     |  12.1 |  2.38
Bond    | 0.0070393  | 0.0085497  | 0.011356   |   1.4 |  0.00
Kspace  | 378.57     | 379.08     | 379.65     |   2.2 | 89.26
Neigh   | 0.77207    | 0.83908    | 0.92179    |   5.4 |  0.20
Comm    | 3.8262     | 4.0742     | 4.3519     |   9.4 |  0.96
Output  | 0.00038386 | 0.0045575  | 0.010729   |   5.4 |  0.00
Modify  | 25.405     | 27.881     | 29.909     |  32.6 |  6.57
Other   |            | 2.684      |            |       |  0.63

Nlocal:        288.000 ave         305 max         269 min
Histogram: 1 1 0 1 0 1 2 0 1 1
Nghost:        5822.00 ave        5854 max        5793 min
Histogram: 1 2 0 0 2 0 1 0 0 2
Neighs:         0.00000 ave           0 max           0 min
Histogram: 8 0 0 0 0 0 0 0 0 0
FullNghs:      232919.0 ave      248372 max      216684 min
Histogram: 1 1 0 1 1 1 1 0 1 1

Total # of neighbors = 1863350
Ave neighs/atom = 808.74566
Ave special neighs/atom = 0.0000000
Neighbor list builds = 329
Dangerous builds = 0

    unfix 1
#    unfix 2
    unfix freeze
    unfix deforming

    timestep 0.002

    fix 1 all   nph	            iso ${ipress} ${ipress} 1.0
    fix 1 all   nph	            iso 0.1 ${ipress} 1.0
    fix 1 all   nph	            iso 0.1 0.1 1.0
    run ${t_pressed}
    run 50000
PPPM initialization ...
  using 12-bit tables for long-range coulomb (src/kspace.cpp:340)
  G vector (1/distance) = 0.1206864
  grid = 32 32 32
  stencil order = 5
  estimated absolute RMS force accuracy = 0.00049681107
  estimated relative force accuracy = 0.00049681107
  using double precision KISS FFT
  3d grid and FFT values/proc = 9261 4096
  generated 0 of 1 mixed pair_coeff terms from geometric mixing rule
Per MPI rank memory allocation (min/avg/max) = 9.331 | 9.343 | 9.375 Mbytes
Step PotEng Temp c_press Lx CPU 
  100000   -181771.69    1.5198792   0.17455929           66            0 
  105000   -200713.45     1.579509  0.094031796    61.848757    14.069027 
  110000   -202306.34    1.6243144    0.1019656    60.704855    28.325001 
  115000   -203697.11    1.6322886   0.10386877    60.147479    42.796777 
  120000   -204513.79    1.6119689  0.092199286    60.105897    57.289975 
  125000   -204826.19    1.6350661  0.098666921    60.009047    71.796151 
  130000   -205143.52    1.6066291  0.097935376    59.986308    86.308276 
  135000   -205198.38     1.636338   0.10266197    59.934641    100.83701 
  140000   -205540.05    1.6307212   0.10189599     59.90764    115.40178 
  145000   -205591.16    1.5580262   0.10189861     59.91855    129.91074 
  150000   -205665.69    1.5896182  0.099949027    59.908433    144.44667 
Loop time of 144.447 on 8 procs for 50000 steps with 2304 atoms

Performance: 59814.407 tau/day, 346.148 timesteps/s
97.2% CPU use with 8 MPI tasks x 1 OpenMP threads

MPI task timing breakdown:
Section |  min time  |  avg time  |  max time  |%varavg| %total
---------------------------------------------------------------
Pair    | 16.255     | 18.489     | 22.106     |  44.4 | 12.80
Bond    | 0.0050826  | 0.0061089  | 0.0072881  |   1.0 |  0.00
Kspace  | 66.018     | 66.677     | 67.531     |   7.1 | 46.16
Neigh   | 6.2111     | 6.3712     | 6.678      |   5.9 |  4.41
Comm    | 5.9369     | 6.0389     | 6.1679     |   3.2 |  4.18
Output  | 0.00030277 | 0.00046239 | 0.0015574  |   0.0 |  0.00
Modify  | 42.738     | 45.063     | 48.039     |  22.4 | 31.20
Other   |            | 1.801      |            |       |  1.25

Nlocal:        288.000 ave         292 max         281 min
Histogram: 1 0 1 0 1 0 0 1 1 3
Nghost:        7263.12 ave        7274 max        7249 min
Histogram: 2 0 0 0 1 0 1 1 2 1
Neighs:         0.00000 ave           0 max           0 min
Histogram: 8 0 0 0 0 0 0 0 0 0
FullNghs:      315927.0 ave      320307 max      308364 min
Histogram: 1 0 1 0 1 0 0 1 2 2

Total # of neighbors = 2527416
Ave neighs/atom = 1096.9688
Ave special neighs/atom = 0.0000000
Neighbor list builds = 707
Dangerous builds = 0
    unfix 1
    fix 1 all   nph	            iso ${ipress} ${ppress} 1.0
    fix 1 all   nph	            iso 0.1 ${ppress} 1.0
    fix 1 all   nph	            iso 0.1 0 1.0
    run ${t_relaxed}
    run 100000
PPPM initialization ...
  using 12-bit tables for long-range coulomb (src/kspace.cpp:340)
  G vector (1/distance) = 0.12144948
  grid = 30 30 30
  stencil order = 5
  estimated absolute RMS force accuracy = 0.00049822829
  estimated relative force accuracy = 0.00049822829
  using double precision KISS FFT
  3d grid and FFT values/proc = 8000 3600
  generated 0 of 1 mixed pair_coeff terms from geometric mixing rule
Per MPI rank memory allocation (min/avg/max) = 9.763 | 9.798 | 9.810 Mbytes
Step PotEng Temp c_press Lx CPU 
  150000   -205665.56    1.5896182  0.099954406    59.908433            0 
  155000   -205806.78    1.5874157  0.089450513    60.020615    14.076927 
  160000   -205761.79    1.6375524  0.086094028    60.070112    28.107755 
  165000   -205964.51     1.595491  0.083304188    60.104909    42.162388 
  170000   -205720.86    1.6234037  0.076686156    60.187035    56.180829 
  175000   -205708.03    1.5999564  0.080375151    60.181693    70.222619 
  180000   -205900.36    1.6184882  0.068143665    60.305686    84.237912 
  185000   -205736.11    1.6177042  0.056358411    60.442827     98.29421 
  190000   -205915.89    1.6243227  0.060884357    60.355641    112.32936 
  195000   -205895.96    1.6224457  0.056818482    60.429895      126.321 
  200000   -205842.03     1.589157  0.045404697    60.570784    140.32811 
  205000   -205785.96    1.6421386  0.041528329    60.647628    154.31086 
  210000   -205736.77    1.6262206  0.037840885    60.717268    168.30975 
  215000   -205718.24     1.613368  0.031881239    60.753006    182.24578 
  220000   -205378.03    1.6666592  0.026797429    60.942682    196.21293 
  225000   -205566.33    1.6070375   0.02210971    60.957994    210.15602 
  230000    -205358.8    1.6014578  0.018727401    61.049356    224.06041 
  235000   -205109.37    1.6158515 0.0088950184    61.266774    237.95835 
  240000   -205077.53    1.6069039  0.011522735    61.263268    251.85187 
  245000    -204868.5    1.5859868 0.0035371169    61.466015    265.70903 
  250000   -204747.82    1.6142913 0.0012414858    61.516573    279.58728 
Loop time of 279.587 on 8 procs for 100000 steps with 2304 atoms

Performance: 61805.356 tau/day, 357.670 timesteps/s
94.0% CPU use with 8 MPI tasks x 1 OpenMP threads

MPI task timing breakdown:
Section |  min time  |  avg time  |  max time  |%varavg| %total
---------------------------------------------------------------
Pair    | 55.195     | 59.938     | 68.075     |  53.2 | 21.44
Bond    | 0.0097247  | 0.012285   | 0.015086   |   1.6 |  0.00
Kspace  | 108.29     | 109.73     | 111.48     |  11.7 | 39.25
Neigh   | 12.476     | 12.661     | 12.986     |   4.1 |  4.53
Comm    | 12.01      | 12.189     | 12.453     |   4.4 |  4.36
Output  | 0.00061993 | 0.0009627  | 0.0033137  |   0.0 |  0.00
Modify  | 65.202     | 77.762     | 86.324     |  87.9 | 27.81
Other   |            | 7.292      |            |       |  2.61

Nlocal:        288.000 ave         294 max         279 min
Histogram: 1 0 1 1 0 0 0 2 1 2
Nghost:        7016.38 ave        7062 max        6984 min
Histogram: 3 0 0 1 1 1 0 1 0 1
Neighs:         0.00000 ave           0 max           0 min
Histogram: 8 0 0 0 0 0 0 0 0 0
FullNghs:      292169.0 ave      298395 max      282918 min
Histogram: 1 0 2 0 0 0 1 1 1 2

Total # of neighbors = 2337350
Ave neighs/atom = 1014.4748
Ave special neighs/atom = 0.0000000
Neighbor list builds = 1401
Dangerous builds = 0
    unfix 1

    timestep 0.001
    dump moldump all custom 10000 ${xyzname} id type q x y z
    dump moldump all custom 10000 r8f0_coulombic_1.62.lammpstrj id type q x y z
    fix 1 all   nph                 iso ${ppress} ${ppress} 1.0
    fix 1 all   nph                 iso 0 ${ppress} 1.0
    fix 1 all   nph                 iso 0 0 1.0
    run ${t_eq}
    run 10000000
PPPM initialization ...
  using 12-bit tables for long-range coulomb (src/kspace.cpp:340)
  G vector (1/distance) = 0.12082631
  grid = 30 30 30
  stencil order = 5
  estimated absolute RMS force accuracy = 0.00053804718
  estimated relative force accuracy = 0.00053804718
  using double precision KISS FFT
  3d grid and FFT values/proc = 8000 3600
  generated 0 of 1 mixed pair_coeff terms from geometric mixing rule
Per MPI rank memory allocation (min/avg/max) = 11.03 | 11.06 | 11.07 Mbytes
Step PotEng Temp c_press Lx CPU 
  250000   -204747.88    1.6142913 0.0012393209    61.516573            0 
  255000   -204759.71    1.6379866 0.0029513878    61.510952    13.435557 
  260000   -204441.19    1.6391713 -0.0020767621     61.67669      26.8169 
  265000   -204675.09    1.5931516 0.0010658345    61.560504    40.246927 
  270000   -204785.88    1.6257998 -0.00053678396    61.503901    53.687398 
  275000   -204570.91    1.5843187 -0.0072320222    61.653735     67.11264 
  280000   -204651.61    1.6289423 -0.0054757434    61.604483    80.573393 
  285000   -204737.41    1.6247297 0.0032914331    61.510596    94.060502 
  290000   -204822.07    1.6170038 -0.0039622095    61.579726     107.4825 
  295000    -204644.8    1.6094219 0.00037365079     61.62634     120.8666 
  300000    -204841.1    1.5660458 0.00081385486    61.579323    134.31049 
  305000   -204724.56    1.5732305 -0.0033814169    61.607088    147.78228 
  310000   -204744.66     1.642952 0.0021161407    61.514473    161.22909 
  315000    -204532.7     1.638402 -0.00031232075    61.606888     174.6559 
  320000   -204616.29    1.6226509 -0.00086981043    61.595474    188.04303 
  325000   -204775.33    1.6365955 0.00073961126    61.590016    201.45919 
  330000   -204701.74    1.6336758 0.0021567922    61.542659    214.86848 
  335000   -204854.83     1.600133  0.003329599    61.490113    228.29961 
  340000   -204773.94    1.6018985 -0.0036606398    61.590315    241.72913 
  345000   -204601.44    1.5994536 0.0086841394    61.521465     255.1569 
  350000   -204597.43    1.5757289 0.0015275765    61.584065    268.58354 
  355000   -204680.97    1.5639003 -0.00075337479    61.555662    281.99528 
  360000    -204854.4    1.6458075 0.0013139572    61.498482    295.46855 
  365000   -204956.71    1.6061276 -0.003404566    61.541357     308.9168 
  370000   -204842.19    1.6307957 0.0017675694     61.52948      322.389 
  375000   -204809.76    1.5880596 0.0040065303    61.533488    335.84717 
  380000   -204987.74    1.5831732 0.0017877205    61.434864    349.33333 
  385000   -204928.99    1.5808408 -0.006547832     61.59308    362.79416 
  390000   -204672.26    1.6246615 -0.0018423361     61.57577    376.28885 
  395000   -204847.09    1.5866355 -0.0047730884    61.614873    389.70658 
  400000   -204658.63    1.6008961 -0.00067910574    61.612327    403.12965 
  405000   -204542.91    1.6190215 7.534442e-05    61.627604    416.56099 
  410000   -204888.51    1.5694608 0.0032576544    61.494353    429.98455 
  415000   -204615.64    1.5981844 -0.0033497767    61.577585     443.4266 
  420000   -204884.93    1.6421776 0.0007201271    61.510633    456.88986 
  425000   -204753.23    1.6319268 0.00035370221    61.579212    470.31675 
  430000   -204933.41    1.5900777  0.007937119    61.430738    483.73339 
  435000   -204857.76    1.6043405 -0.00064211098    61.570335    497.20546 
  440000   -204812.37    1.6108192 0.0064748547    61.513909    510.67446 
  445000   -204959.43    1.6569372 0.0050523691    61.516595    524.12329 
  450000   -204691.35    1.6236466 -0.0054477129      61.7531    537.56517 
  455000   -204617.36    1.5887745 0.0018270614    61.579291    550.96168 
  460000   -204511.14    1.6127994 0.0025471533    61.644641    564.37016 
  465000   -204455.84    1.6473662 -0.00091792237    61.668451    577.79995 
  470000   -204691.51    1.6703101 0.0051814509    61.492111    591.23639 
  475000   -204657.12    1.6300982 -0.0024256666    61.580672    604.70495 
  480000   -204846.55    1.5935762 -0.00014483279    61.504831    618.20462 
  485000   -204784.55    1.6233391 0.00031522475    61.527745    631.63656 
  490000   -204778.32    1.6337701 -0.0049223913    61.614286     645.1027 
  495000   -204709.06     1.640673 0.0081008062    61.459839    658.56608 
  500000   -204875.31    1.6276077  0.004485293    61.451975    672.00613 
  505000   -204717.31    1.6120919 -0.0015884174    61.589879    685.45088 
  510000   -204619.85    1.6012359 -0.0020590839    61.574524    698.89154 
  515000   -204630.21    1.5968998 0.0046750838    61.497507    712.32047 
  520000    -204738.1    1.6398149 0.00020349454    61.548185    725.78683 
  525000    -204626.6    1.5857465 -0.00032335087    61.685013    739.19636 
  530000   -204660.83    1.6509361 0.00079812774    61.607161    752.64597 
  535000   -204658.27    1.5861599 0.00062507098    61.618015    766.08168 
  540000   -204561.86     1.591897 0.0028107713    61.626581     779.5329 
  545000   -204593.35    1.5984856 -0.00019631703    61.609897     792.9432 
  550000   -204648.46    1.6285006 -4.7605771e-05    61.620034    806.37012 
  555000   -204749.97    1.6706837 0.0022557831    61.572146    819.81954 
  560000   -204975.46    1.6576034 0.0036599524    61.472779    833.29055 
  565000   -204912.14     1.610311 -0.0023532212    61.515613    846.74936 
  570000   -205173.82    1.6064417 -0.00016138163    61.462801    860.22496 
  575000   -204736.75    1.6668028 0.0002893621    61.520232    873.69999 
  580000   -204781.96     1.625082 -0.0062652808    61.646025    887.17165 
  585000   -204805.77    1.6029849 0.0032613497    61.519759    900.64532 
  590000   -204911.07    1.6094221 0.0021360591    61.426229    914.12106 
  595000   -204774.78    1.6311339 0.0029844834    61.514555    927.58389 
  600000    -204813.7    1.6339686  0.011762913    61.398936    941.03779 
  605000   -204507.94    1.5952888 -0.0027312793    61.683197     954.4834 
  610000   -204545.46    1.6106746 -0.0023383512    61.659841    967.89514 
  615000   -204493.99    1.6359636 0.00059128722    61.681047    981.33538 
  620000   -204591.79    1.6131655 -0.0036837944    61.645757    994.79416 
  625000   -204518.83     1.627981 -0.0095520904    61.717746    1008.2212 
  630000   -204564.14    1.5884528 0.0020914677    61.595484    1021.7149 
  635000   -204504.86    1.5883394 -0.0025013429    61.675532    1035.1944 
  640000   -204440.55    1.5853434 0.0028488919    61.625181    1048.6385 
  645000   -204634.94    1.6580684 0.0022342419    61.565148    1062.0943 
  650000   -204690.32    1.6245503 -0.0011306744    61.569503    1075.5665 
  655000   -204868.63    1.6112818 -0.0019325698    61.576503    1088.9597 
  660000   -204603.06    1.6653807 -0.00025770453    61.618702    1102.3918 
  665000   -204896.92    1.6307919 0.0035647904    61.441352    1115.7997 
  670000   -204884.87    1.6547373 -0.001055318     61.55027    1129.2629 
  675000   -204876.37    1.6023007 -0.0013557838    61.521806    1142.7019 
  680000   -204716.62    1.5975441 -0.002497846    61.581526    1156.1955 
  685000   -204959.52    1.6297625 -0.0022202764    61.501767    1169.6195 
  690000   -204864.98    1.6063162 -0.0023289644    61.491057     1183.049 
  695000   -204882.09     1.615044 -0.0022580159    61.450528     1196.522 
  700000   -204950.69    1.5862768 -0.00036891306    61.418806    1210.0002 
  705000   -204844.88    1.6334272  0.006267508    61.493901    1223.4727 
  710000   -204710.43     1.649223 0.0020662481    61.593992    1236.8794 
  715000   -204729.51    1.6180823 0.0026739124    61.518457    1250.3166 
  720000   -204768.83    1.6082934 0.0021586716    61.540828    1263.7346 
  725000   -204795.36    1.6412626  0.002646425    61.516643    1277.1763 
  730000   -204719.33     1.639932 3.9014771e-05     61.55847    1290.6004 
  735000   -204663.85    1.6124743 -0.006838494    61.614914    1304.0462 
  740000   -204794.83     1.606138 0.00088607454    61.516711    1317.4499 
  745000   -204427.26    1.5981402 -0.0017762356    61.654668    1330.8554 
  750000   -204359.99     1.565386 -0.0020571595    61.701685    1344.2842 
  755000   -204417.75    1.6198168 0.0011787244    61.701699    1357.7099 
  760000   -204451.25    1.6039302 -8.4462307e-05    61.699291    1371.1242 
  765000   -204415.02    1.5940127 0.0011254859    61.704521    1384.5263 
  770000   -204345.49    1.5686338 -0.0014429929    61.671422    1397.9654 
  775000   -204325.29    1.6184385 0.00026913739    61.722045    1411.3669 
  780000   -204220.85    1.5997474  0.005039083    61.730407    1424.7622 
  785000   -204351.45    1.6082542 -0.001433275    61.747825    1438.1486 
  790000   -204298.51     1.643275 -0.0031811584    61.761266     1451.554 
  795000   -204397.07    1.6484854 0.0028988041    61.682089    1464.9459 
  800000   -204438.85    1.6196043 -0.0071992945    61.808305    1478.3524 
  805000   -204495.97    1.6064059 -0.00055896711    61.678794    1491.6942 
  810000   -204239.08    1.6110343 0.0053073758    61.686826    1505.0958 
  815000    -204515.3     1.635308 -0.0025168189    61.671374    1518.5263 
  820000   -204374.77    1.5853796 -0.0024394062     61.70605    1531.9812 
  825000   -204858.06    1.5742655 0.0023603816    61.544455    1545.3865 
  830000   -204622.46    1.6039928 0.0042798109     61.55073    1558.8226 
  835000   -204469.38    1.5839981 0.00018298468    61.616247    1572.2472 
  840000   -204775.43    1.6052388 0.0032918473    61.513382    1585.6976 
  845000   -204459.41    1.6106145 0.0035267158    61.535623    1599.1523 
  850000    -204472.1    1.6471808 0.0099218271    61.502362    1612.5912 
  855000    -204661.5    1.6414894 -0.00094120929    61.590298    1626.0278 
  860000   -204742.67    1.6766538 0.0014134238    61.548999    1639.5248 
  865000   -204641.69    1.6187599 -0.0027295289    61.639229    1652.9645 
  870000   -204583.79    1.6050714 0.0014976461    61.618028     1666.373 
  875000   -204676.83    1.6104297 -0.00062454967    61.607748    1679.7484 
  880000   -204628.46     1.639381 6.3705331e-05    61.617387    1693.1509 
  885000   -204726.21    1.6251976 -0.00014903024      61.6055    1706.5828 
  890000   -204715.54    1.6152785 0.0047417549    61.579501    1720.0366 
  895000   -204626.04    1.6273869 0.00024867871    61.618528    1733.4517 
  900000   -204630.74    1.6423263 -0.0077237739    61.718155    1746.8747 
  905000   -204702.84    1.6410043 -0.0019195473    61.640717    1760.3222 
  910000   -204633.94    1.6385793 0.0023335455    61.559974    1773.7896 
  915000   -204229.07    1.6031473 -0.0001871638    61.712576    1787.2377 
  920000   -204492.21    1.6040438 -0.0068216866    61.736406    1800.6528 
  925000   -204535.83    1.6320535 0.0037812586    61.573776    1814.0928 
  930000   -204596.27     1.592503 -0.0047812566    61.651099    1827.5568 
  935000   -204730.75    1.6286936 -0.0037148619    61.640968    1840.9537 
  940000   -204787.94     1.604581 0.0016088234    61.587057    1854.3815 
  945000   -204746.76    1.6321543 0.0043306529    61.507559    1867.8099 
  950000   -204811.63    1.6790717 0.0051346464     61.49487    1881.2338 
  955000   -204974.71    1.6245085 0.0026183592     61.50457    1894.6629 
  960000    -204569.7    1.6167302 -0.0023753286    61.675649    1908.0864 
  965000   -204533.07     1.588543 0.0026134364    61.590211    1921.5226 
  970000      -204708     1.588635 0.00048614825    61.641736    1934.9246 
  975000   -204606.37    1.6132576 0.0062866793    61.554938    1948.3378 
  980000   -204531.87     1.635427 -0.0010760192    61.679353    1961.7857 
  985000   -204636.58    1.6607021 -0.0027702534    61.696369    1975.2242 
  990000   -204557.83    1.6052679 0.0023273294    61.624424    1988.6633 
  995000   -204579.64    1.6170872 0.00036201109    61.648574    2002.0974 
 1000000   -204432.88    1.6182706 0.0020252909    61.618833    2015.4818 
 1005000   -204584.91    1.6478335 0.00099679498    61.636209    2028.9023 
 1010000   -204641.02    1.6643976 0.0010127725    61.563478    2042.3209 
 1015000   -204742.47    1.5671517 -0.0029763667    61.656408    2055.7565 
 1020000   -204728.24    1.6629298 -0.00061093499    61.612659    2069.1801 
 1025000   -204866.38    1.5832149 0.0018165805     61.52417    2082.6217 
 1030000   -205020.37    1.6508496 0.00075723756    61.499047    2096.0753 
 1035000   -204730.28    1.6004339 -0.0038854559    61.648939    2109.4838 
 1040000   -204833.16    1.6125916 -9.3016406e-08    61.582099    2122.9361 
 1045000   -204848.12    1.6183548 0.0049708091    61.489406    2136.3734 
 1050000   -204788.73    1.6495951 -0.0044761019    61.603999    2149.8123 
 1055000   -204875.12    1.6249048 0.0023262252    61.451532    2163.2684 
 1060000   -204971.82    1.6067329 0.00076061376    61.484394    2176.7423 
 1065000   -204775.62    1.5676362 -0.0023903487    61.540201    2190.1827 
 1070000   -204734.14    1.5671422 -0.0053987106     61.58521    2203.6774 
 1075000   -204768.72    1.6123924 -0.00035993524    61.583239    2217.1548 
 1080000   -204790.12    1.6165812 0.0052339579    61.456445    2230.6366 
 1085000   -204825.01    1.6380177  0.001228283    61.547079    2244.0421 
 1090000   -204694.24    1.6078371 0.0014859697    61.544447    2257.4429 
 1095000   -204647.92    1.6344724 -0.0053410847    61.645753    2270.9246 
 1100000   -204691.63    1.6164415 0.0008665594    61.587891    2284.3579 
 1105000      -204830    1.6141751 -0.0055655617    61.634251    2297.8185 
 1110000   -204807.21     1.587751 -0.0035319444      61.5225     2311.268 
 1115000   -204861.47     1.611815 0.00045508228    61.483384    2324.7396 
 1120000   -204654.08     1.630171 -0.004218277    61.618353    2338.2316 
 1125000   -204691.96    1.6104022 -0.00058055505    61.565589    2351.6739 
 1130000   -204584.49    1.6384277 -0.0031858379    61.656128    2365.0907 
 1135000   -204876.44    1.6046708 -0.0052097304    61.562312    2378.5458 
 1140000    -204964.9    1.6200895 -0.0066067515    61.564363    2391.9939 
 1145000   -204706.84    1.6173657 -0.0020470222    61.571447    2405.4348 
 1150000   -204677.49    1.6286275 -9.6697341e-05    61.589791    2418.8923 
 1155000   -204749.84    1.6025371 -0.002760905    61.613521    2432.3472 
 1160000   -204575.71    1.5715522 -0.0037735701    61.692327    2445.7876 
 1165000   -204530.69    1.6367493 0.0032856065    61.607967    2459.2497 
 1170000   -204419.72    1.5848462 0.00074875527    61.731662     2472.715 
 1175000   -204621.97    1.6386664 0.0054589792    61.576948    2486.1571 
 1180000   -204573.06    1.6002023 0.0057296089    61.611063    2499.6313 
 1185000   -204533.09    1.5289964 -0.0086904223    61.773779    2513.0731 
 1190000   -204619.43    1.6263044 0.0055982047    61.626449    2526.5173 
 1195000   -204604.65     1.628815 -0.0042240777    61.687747    2539.9472 
 1200000   -204655.07    1.5985866 0.0034742809     61.63171    2553.3784 
 1205000   -204742.03    1.5908764 -0.0059842438    61.656125    2566.8138 
 1210000   -204793.76    1.6239954 0.0018183787    61.547504    2580.2194 
 1215000   -204785.72    1.6912886 -4.3194209e-05    61.589559    2593.6747 
 1220000   -204887.99    1.6173592 -0.00094656597    61.583419    2607.1637 
 1225000   -204856.71    1.6336749 -0.0011657552     61.56349    2620.6254 
 1230000   -204678.48    1.6772088 -0.0027572625    61.604658    2634.0593 
 1235000   -204816.26    1.5770288 0.00054609964    61.545318    2647.5033 
 1240000    -204669.9    1.6519834 -0.0013284131    61.563957    2660.9611 
 1245000    -204667.9    1.6111556 0.0032085413    61.563566    2674.3877 
 1250000    -204471.5    1.5924473 -0.00087712459    61.625193    2687.8503 
 1255000   -204419.71    1.5533895 -0.0013668296    61.677007     2701.296 
 1260000   -204559.95    1.6379444 0.0038320909    61.593486    2714.6943 
 1265000    -204442.3    1.6463035 -0.0010322686    61.720014    2728.1109 
 1270000   -204374.97    1.6627156 -0.00075051774    61.715273    2741.5613 
 1275000   -204221.13     1.589789 0.00014107284    61.778111    2754.9153 
 1280000   -204414.73    1.6485707 5.0924175e-05    61.739182    2768.2897 
 1285000   -204137.23    1.6172472 -0.0031509099    61.849026    2781.7011 
 1290000   -204241.85    1.6365613 0.0013693792    61.809512    2795.0909 
 1295000   -204367.38    1.5953212 0.00074942956    61.740162    2808.4721 
 1300000   -204508.84    1.6064155 -0.0020469054    61.686915    2821.8749 
 1305000   -204551.14    1.6130369 -0.0032108956     61.64509    2835.2957 
 1310000   -204657.13    1.5749201 0.0064764184    61.567974    2848.7129 
 1315000   -204635.28     1.580887  0.002799769    61.575055    2862.1432 
 1320000   -204672.51    1.6112729 -0.0018435042    61.573252    2875.5933 
 1325000    -204675.1    1.6003931 -0.0050994094    61.626466    2889.0738 
 1330000   -204627.56    1.6101399 -0.0016340856    61.620701     2902.525 
 1335000   -204673.33    1.6368165 -0.0037190588    61.618782    2915.9555 
 1340000   -204769.92    1.6157974 -0.0048526894    61.632041    2929.3975 
 1345000    -204803.6    1.6402729 0.0042344502    61.502113    2942.8585 
 1350000   -205016.26    1.6288408 -0.00087651903    61.501442    2956.3223 
 1355000   -204845.07    1.6040602 0.0029437261     61.53362    2969.8037 
 1360000   -204861.96    1.6493981 0.0013327176    61.514232    2983.2703 
 1365000   -204797.22    1.5962745 0.00065420957    61.515597    2996.7482 
 1370000   -204675.74      1.60269 0.0086715535    61.511354    3010.2224 
 1375000   -204583.92    1.6491297 -0.0018774973     61.63224    3023.6728 
 1380000   -204630.06    1.5823305 -0.00033042491    61.598672    3037.1512 
 1385000   -204593.49    1.6281356 -0.0016102919    61.673499    3050.6193 
 1390000   -204647.98    1.6394116 -0.0023719302    61.624998    3064.0911 
 1395000    -204467.3    1.6315922 1.2460675e-05    61.646177    3077.5212 
 1400000   -204385.27    1.5813822 -0.0020013685    61.673319    3090.9899 
 1405000   -204314.82     1.617996 -0.0023828647    61.697128    3104.4341 
 1410000   -204459.42    1.6193402 0.0059667012    61.556845    3117.8366 
 1415000   -204531.24    1.6354129 -0.00044700787    61.620329    3131.2657 
 1420000   -204748.13     1.644763 0.00035282069    61.510284    3144.7015 
 1425000   -204656.86    1.6367054 -0.00026167081    61.572772    3158.1738 
 1430000   -204504.86    1.6087989 -0.0051584625    61.699322    3171.6108 
 1435000   -204575.57    1.6407128 0.0027754812    61.610972     3185.023 
 1440000   -204357.36    1.6404853 -0.0041799223    61.711244    3198.4401 
 1445000   -204563.31    1.6529362 0.0036741487    61.554229    3211.9287 
 1450000   -204623.57    1.6170846 -4.6035971e-06    61.582416    3225.3739 
 1455000   -204549.15    1.5820366 -9.376279e-05    61.580391    3238.7689 
 1460000    -204591.4    1.6194445 -0.0049337987     61.66573    3252.2007 
 1465000   -204454.26    1.6548716  0.007996085    61.585751    3265.5792 
 1470000   -204270.33    1.6301938 -0.0032061344      61.7835    3279.0023 
 1475000   -204264.96    1.6118424 -0.0015917583    61.704934    3292.3768 
 1480000   -204519.07    1.5933987 -0.003177887    61.683374     3305.829 
 1485000   -204492.03    1.6032535 0.0012477202    61.598889    3319.2658 
 1490000   -204302.37    1.6020616  0.001623364    61.670016    3332.6495 
 1495000   -204285.75    1.5906396 0.00097406102    61.616298    3346.0931 
 1500000   -204489.01    1.5940132 -0.0020907454    61.674698    3359.5374 
 1505000   -204248.97    1.6267776 -0.005055976    61.799018     3372.947 
 1510000   -204275.51    1.5999744    0.0015999    61.721258     3386.379 
 1515000   -204227.74    1.6248854 -0.00048756046    61.835536    3399.7471 
 1520000   -204357.54    1.5945915 -0.0033955666    61.734657    3413.1586 
 1525000   -204566.95    1.6325991 0.0043121909    61.580656    3426.5624 
 1530000   -204551.96    1.6113818 -0.0044779215    61.731005    3439.9592 
 1535000   -204413.84    1.6026634 0.0015489307    61.655686    3453.3546 
 1540000   -204557.74    1.6550073 -0.0010601767    61.697262    3466.8004 
 1545000   -204113.66    1.5795998 -0.000908001    61.833927    3480.2343 
 1550000   -204187.79      1.62514 0.0031439251    61.726341    3493.6687 
 1555000   -204259.84    1.6309166 -0.00050085294    61.749975    3507.0593 
 1560000   -204497.14    1.6429443 0.0019298392    61.628101    3520.4918 
 1565000   -204406.98    1.6425156 -0.00076890894    61.702228    3533.9238 
 1570000    -204410.5    1.5722807 0.00091873485    61.689291    3547.3096 
 1575000   -204569.03    1.6385016 0.0016224612    61.665622    3560.7316 
 1580000   -204471.73    1.6230966 -0.002172224     61.71527    3574.1651 
 1585000   -204650.83     1.664763 0.0073873638     61.55675    3587.5747 
 1590000   -204516.42    1.6269371 0.0032671028    61.585889    3601.0274 
 1595000    -204452.2    1.6363674 -0.0019367044    61.668101    3614.5092 
 1600000   -204376.47    1.6369916 0.00074086717    61.656876    3627.9492 
 1605000    -204182.3    1.6351762 -0.0053641426     61.83848    3641.3283 
 1610000   -204236.57    1.6131254 -0.00030925959    61.727294    3654.7274 
 1615000   -204138.49     1.606234 -0.0027578581    61.851015    3668.1041 
 1620000   -204302.23    1.5960201 -0.0018440564    61.818845    3681.4801 
 1625000   -204401.64    1.6267772  0.001608198    61.731929    3694.8492 
 1630000   -204200.16    1.6370839 -0.0027615961    61.808018     3708.273 
 1635000   -204366.62     1.585055 -0.0021387069    61.751452    3721.7263 
 1640000    -204443.5    1.5811628 0.0040916884    61.582562    3735.1676 
 1645000   -204577.48    1.5880787 0.0015714112    61.601326    3748.5941 
 1650000   -204589.38    1.6704422 -0.003100244    61.609146    3762.0513 
 1655000   -204704.33    1.6261522 -0.001552225    61.552192    3775.4959 
 1660000   -204723.83    1.6322196 -0.0039192285    61.597826    3788.9248 
 1665000   -204694.87    1.6019884 0.0023870038    61.552205    3802.3592 
 1670000   -204624.94     1.658122 -0.0063177343    61.671105    3815.8009 
 1675000   -204649.52    1.6040097 0.00053687461    61.546549    3829.2429 
 1680000   -204850.75    1.5675285 0.0049189361    61.462912    3842.7204 
 1685000   -204680.51     1.620475 0.0016472849    61.565984    3856.1754 
 1690000   -204741.06     1.633406 0.0039395124    61.474793     3869.703 
 1695000   -204390.87    1.6246991 -0.0061846386    61.693657     3883.179 
 1700000    -204557.9    1.6611802 -0.0006906676    61.572921    3896.6518 
 1705000   -204703.86    1.6356451 0.00061502697    61.555799    3910.1075 
 1710000   -204445.35    1.6165649 -0.0026502834    61.643307    3923.5431 
 1715000   -204432.47     1.585231 -0.00013539671    61.610583    3936.9693 
 1720000   -204642.21    1.6323031 -0.006071088    61.574333     3950.426 
 1725000   -204639.07    1.6244465 -0.0030326631    61.621678    3963.8865 
 1730000   -204569.61    1.5938546 0.0020956805    61.575566    3977.3076 
 1735000    -204538.1     1.615267 0.0033384415     61.61168    3990.7043 
 1740000   -204603.82    1.6315769 -0.0044360105    61.644644    4004.1408 
 1745000   -204612.76    1.6374757 -0.0038979077    61.705733    4017.6027 
 1750000   -204414.82    1.6114879 0.00020498435    61.689316    4031.0417 
 1755000   -204719.63    1.5723704 -0.0074165475    61.639885    4044.5026 
 1760000   -204506.78    1.6322833 -0.0026301075    61.723958    4057.9282 
 1765000   -204605.48    1.6976672 0.0041777552    61.584224    4071.4022 
 1770000   -204822.16    1.5840636 0.00041006739    61.555598    4084.8296 
 1775000    -204688.3    1.6547769 -0.0028812291    61.593691     4098.263 
 1780000   -204565.36    1.6323341 0.0018674096    61.550882    4111.7218 
 1785000   -204478.34     1.656072 -0.0021683213    61.697152    4125.1595 
 1790000   -204640.29    1.6375649 0.00060781753    61.584504     4138.594 
 1795000   -204689.52    1.6147306 0.0011788014    61.587762    4152.0623 
 1800000   -204579.69     1.646862 -0.0016155383    61.660341    4165.5103 
 1805000   -204415.61    1.6008061 -0.0028840779    61.703341    4178.9372 
 1810000   -204481.39    1.6460937 0.0055916829    61.527603    4192.3838 
 1815000   -204320.94     1.626829 0.0018562238    61.626503    4205.8049 
 1820000   -204624.04    1.5932788 -0.00095386534    61.582065    4219.2323 
 1825000   -204637.77    1.5855711 -0.004083234    61.574831    4232.6882 
 1830000   -204780.67    1.5902555 -0.0050302468     61.59009    4246.1667 
 1835000   -204782.64    1.6471673 6.3860916e-05    61.564488    4259.6359 
 1840000   -204773.83    1.6232308 0.0035854622    61.501783     4273.115 
 1845000   -204874.67    1.6070939 -0.003891134    61.545076    4286.5906 
 1850000    -204956.4    1.6324906 0.0033313635     61.43581    4300.0528 
 1855000   -204830.37    1.6188641 -0.0054458157    61.651519    4313.4651 
 1860000   -204788.58    1.6171832 0.00079366018    61.550834    4326.8964 
 1865000    -204669.3    1.6073663 0.0080862921     61.51408    4340.3296 
 1870000   -204624.21    1.6377711 -0.0013835856    61.660939    4353.7459 
 1875000      -204690    1.6094016 -0.0016360242    61.550386    4367.1711 
 1880000   -204550.87    1.6692037 0.0038825738    61.545356    4380.5926 
 1885000      -204657    1.6106574 -0.0058887637    61.619303     4394.033 
 1890000    -204790.7    1.6181581 -0.00016026193    61.528041    4407.4666 
 1895000   -204883.62    1.6177231 -0.0060845434    61.534426    4420.9305 
 1900000   -204612.66    1.6570496 0.0024740675    61.537489    4434.4066 
 1905000   -204697.13    1.5500501 0.0031919636     61.45124    4447.8174 
 1910000    -204719.1    1.5260128 -0.0016384123    61.576544    4461.2803 
 1915000   -204878.94    1.6178686 -0.00056664923    61.526362    4474.7483 
 1920000   -204644.25    1.5980182 -0.0020428171    61.580578    4488.1719 
 1925000   -204539.49    1.5778602 0.0011597723    61.548993    4501.6127 
 1930000   -205011.36    1.6369557 -0.002877646    61.491526    4515.0401 
 1935000   -204729.89    1.5865392 -0.00094614741    61.546768    4528.5042 
 1940000   -204562.93     1.608908 0.0043827242    61.562131    4541.9359 
 1945000   -204716.34    1.6151957  0.005441965    61.522851    4555.3597 
 1950000   -204702.62     1.635817 -0.0005409207    61.518855    4568.7727 
 1955000   -204812.19    1.6421991 0.0025105543    61.486145    4582.2689 
 1960000   -204620.17    1.6267183 -0.0014716104    61.592843    4595.7436 
 1965000    -204715.8    1.5999654 -0.0034352707    61.578617    4609.2041 
 1970000   -204710.35    1.5999018 -0.00070765623    61.556658    4622.6573 
 1975000   -204687.97    1.6574213 0.0021698523    61.523911     4636.085 
 1980000    -204749.4    1.5904387 0.0026094465    61.506497    4649.5356 
 1985000   -204803.55    1.6041642 -0.003034495    61.527273    4662.9958 
 1990000   -204514.69    1.6064256 0.0013919171     61.59701    4676.4489 
 1995000   -204643.99    1.6076841 -0.0083157596    61.677013     4689.839 
 2000000   -204734.33    1.6128397 0.0056414986    61.539171     4703.302 
 2005000   -204865.92     1.700589 -0.0053979327    61.572272    4716.7449 
 2010000      -204748    1.6033258 -0.0060125482    61.588779    4730.2102 
 2015000   -204824.36    1.5725332 0.0011516339    61.515742    4743.7093 
 2020000   -204718.01     1.614469 -0.0025035533    61.629529    4757.2032 
 2025000   -204679.79    1.6038317 -0.0030460158    61.610488     4770.693 
 2030000    -204854.5    1.5854535 -0.0036480842    61.523973    4784.1421 
 2035000   -204730.58    1.6300729 -0.00062917786    61.587781    4797.5811 
 2040000   -204863.88    1.6245522 -0.00057768121    61.522148    4810.9937 
 2045000   -204749.61    1.6960766 -0.0050709742    61.669943    4824.4324 
 2050000   -204582.01    1.6278347 -0.0024453533    61.697279    4837.8667 
 2055000   -204505.56    1.6332082 -0.0033084001    61.757639    4851.2709 
 2060000   -204531.59    1.6572849 -0.00080859935    61.677596    4864.6594 
 2065000   -204718.79    1.6209001 -0.0015141579    61.586955    4878.0573 
 2070000   -204668.74    1.6033807 0.0018088467    61.623969    4891.5248 
 2075000   -204852.11    1.6306841 -8.0456159e-05    61.497766    4905.0018 
 2080000   -204878.92    1.6161454 0.0057084076    61.500407    4918.4886 
 2085000   -204873.92    1.6213225 -0.00034869355    61.495946    4931.9583 
 2090000   -204888.43    1.6034417 -0.0041513892    61.582182    4945.4562 
 2095000    -205114.6    1.5547653 -0.0031437372     61.47183    4958.9146 
 2100000   -204976.73    1.6343279 -0.0021640419    61.527461    4972.3576 
 2105000   -205027.65    1.6480039 -0.0040309033    61.503382    4985.8157 
 2110000   -205091.99    1.6185057 0.0048615473    61.434748    4999.2919 
 2115000   -205012.22    1.6451777 -0.00094137291    61.546853    5012.7486 
 2120000   -205082.96    1.5903309 0.0016451254    61.459897    5026.2139 
 2125000   -204852.72    1.5839358 0.00099520454    61.524345    5039.6701 
 2130000    -204722.3    1.6326389 -0.004210152    61.613854    5053.1553 
 2135000    -204898.5    1.5493804 0.0029196532     61.50904     5066.626 
 2140000   -204886.17    1.5865286 -0.0015266223    61.526822    5080.0578 
 2145000   -204793.32    1.5763503 -0.0012036455    61.555564    5093.5311 
 2150000   -205014.87    1.6118718 -0.0038794279    61.519456    5107.0006 
 2155000   -204863.55    1.5782941 0.0025918067    61.487915    5120.5276 
 2160000   -204694.83    1.6301152 -0.0023774654    61.592566    5134.0028 
 2165000   -204763.41    1.5934783 -0.0081353225    61.610186    5147.4708 
 2170000   -204857.02    1.6369789 0.0025966747    61.493877    5160.9172 
 2175000   -204845.07    1.5982601 -0.0020819921      61.6025    5174.3433 
 2180000    -204868.5     1.639619 0.0021116373    61.520781    5187.8175 
 2185000   -204921.11    1.5617189 0.0016591824    61.483411    5201.2791 
 2190000   -204765.25    1.6325984 -0.00019791093    61.582874    5214.7314 
 2195000   -204622.46    1.5839673 -0.0020052782    61.606937     5228.147 
 2200000   -204843.22    1.6076361 0.0012926372    61.548883    5241.5974 
 2205000   -204803.32    1.6174929 -0.0058649126    61.670929    5255.0507 
 2210000   -204744.27    1.6309889 -0.0003947992    61.594741    5268.4951 
 2215000   -204645.84    1.6047411 -0.00072776121    61.647193    5281.9232 
 2220000   -204969.84    1.6402027 0.0062250263    61.428477    5295.4016 
 2225000   -204877.16    1.6124826 -0.0011460808    61.575332    5308.8707 
 2230000    -204758.1     1.593482 0.0060076431    61.499656     5322.325 
 2235000   -204889.72    1.6047597 -0.0028883341    61.516777     5335.829 
 2240000   -204818.79    1.6047893 0.0021201951    61.498377    5349.3205 
 2245000   -205078.85    1.6155703 -0.0020730681    61.474016    5362.8126 
 2250000   -204842.74    1.6136756 0.0070087777    61.465458    5376.2814 
 2255000   -204765.47    1.5810812 -0.00022153964    61.525358    5389.7751 
 2260000   -204656.14    1.6387645 0.00050248057    61.663034    5403.2836 
 2265000   -204728.32    1.6473873 0.0080664663    61.520072    5416.6992 
 2270000   -204622.63    1.5971179 -0.0036826874    61.679373    5430.1478 
 2275000   -204747.09    1.5893161 0.00035469582    61.630144    5443.5988 
 2280000   -204832.73    1.6172044 -0.0016578759     61.55615    5457.0788 
 2285000   -204694.06    1.6175033 -0.0073600663    61.678589    5470.5528 
 2290000   -204626.32     1.649191 -0.0018320852    61.596119    5484.0209 
 2295000   -204969.99    1.6066019 0.0042205568    61.416905    5497.4482 
 2300000   -204611.88    1.6015252 -0.0075469189    61.702361    5510.9614 
 2305000   -204681.03    1.6367883 -0.0019465649    61.628241    5524.4088 
 2310000   -204472.21    1.6645466 -0.00027980282    61.666354    5537.8426 
 2315000   -204564.69    1.5775279 0.0018159006    61.627148     5551.294 
 2320000   -204688.28    1.6399662 0.0032433117    61.571428    5564.7372 
 2325000   -204634.84    1.5977448 -0.0044029132     61.68133    5578.2145 
 2330000   -204707.16    1.6234153 0.0020113025    61.549483    5591.6519 
 2335000   -204649.28    1.6387773 0.0040291467    61.563887    5605.1085 
 2340000   -204689.17    1.6442389 -0.0038896888    61.623978    5618.5793 
 2345000   -204554.53    1.6134561 -0.0015022505     61.67278    5632.0116 
 2350000      -204569    1.6230251 0.0060936833    61.583343    5645.4122 
 2355000    -204619.5    1.6553362 0.0042485018    61.612597    5658.8173 
 2360000   -204455.16    1.5776995 0.0021530922    61.712579    5672.1982 
 2365000   -204154.13    1.6486829 -0.005471964    61.828093    5685.5941 
 2370000   -204600.92    1.6034969 0.0050036902    61.579688    5699.0168 
 2375000    -204607.2    1.6415673 -0.0056882231    61.651963    5712.4937 
 2380000   -204501.15    1.6614025 -0.00096520917    61.665659    5725.9478 
 2385000   -204549.65    1.5667989 -0.00080486865    61.594319    5739.3511 
 2390000   -204711.01    1.6184991 -0.003205613    61.691415    5752.7637 
 2395000   -204492.67    1.6220835 0.0021050713    61.656089    5766.1716 
 2400000   -204646.62    1.6400757 -0.006538345    61.699193    5779.5881 
 2405000   -204646.78    1.6475192 -0.0026225249    61.658612    5793.0346 
 2410000   -204583.52    1.6551174 -0.0048651703    61.645872    5806.4896 
 2415000   -204654.54    1.6152762 0.0059219849    61.522833    5819.9389 
 2420000   -204491.43     1.630245 0.0029705295    61.584272    5833.3965 
 2425000   -204694.76    1.6149294 -0.0028166726    61.652013    5846.8055 
 2430000   -204602.34    1.6377113 0.0065644318    61.587226    5860.2507 
 2435000   -204732.84    1.5896534 0.0057145386    61.511366    5873.7038 
 2440000   -204617.43    1.5958163 -0.0048216444    61.651916    5887.1565 
 2445000   -204500.92    1.6168097 0.0016605894    61.656246    5900.6153 
 2450000   -204437.16    1.6333438 -0.0077046446    61.756415    5914.0689 
 2455000   -204634.23    1.5951293 0.00064961594    61.570256    5927.5437 
 2460000   -204473.96    1.6032874 -0.0019974888    61.615998    5940.9959 
 2465000   -204782.62    1.5995096 0.0093152365    61.514707    5954.4188 
 2470000   -204829.52    1.6368092 0.00073237882    61.562042    5967.8598 
 2475000    -204878.8    1.6000623 0.0038266818     61.48203    5981.3107 
 2480000   -204708.67    1.6355145 -0.0012618692     61.60112    5994.7747 
 2485000   -204571.84    1.5963489 0.00018884624    61.651989    6008.2117 
 2490000   -204678.11    1.5980793 -0.0012856115    61.604986    6021.6295 
 2495000   -204546.27    1.5932148 -0.00054348842    61.629262    6035.0416 
 2500000   -204513.85    1.6145939 -0.0041238626    61.701545    6048.4812 
 2505000   -204627.57    1.6248291 0.0054608162    61.524427    6061.9206 
 2510000   -204683.53    1.6558725 -0.0013584235    61.644475    6075.3692 
 2515000   -204486.36     1.664119 -0.0045109202    61.660839    6088.8072 
 2520000   -204706.01     1.614332 0.0043697815     61.50718     6102.256 
 2525000   -204715.66    1.6005676 0.00099235372     61.57221    6115.6787 
 2530000   -204736.88    1.6119005 -0.0033351154     61.62291    6129.1315 
 2535000   -204869.55    1.6231156 0.0026238465    61.501467    6142.5758 
 2540000   -204819.48    1.6539302 -0.00089176871    61.567252    6156.0086 
 2545000   -204617.03    1.6421933 0.0033677931    61.532918    6169.4529 
 2550000   -204627.43    1.6326081 0.00070938926    61.634145    6182.9156 
 2555000   -204688.89    1.6088565 4.2738801e-05    61.566583    6196.3761 
 2560000    -204576.6     1.600167 -0.00065684277    61.571771    6209.8336 
 2565000   -204641.26    1.6433091 0.00097201875    61.602813    6223.3098 
 2570000   -204659.35    1.6044735 0.0049256643    61.505368    6236.7897 
 2575000   -204487.57    1.5935229 0.0023429638    61.535244    6250.2221 
 2580000   -204698.34     1.648261 0.00060973325    61.574865     6263.684 
 2585000   -204748.68    1.6115875 0.0055194702    61.505192    6277.1855 
 2590000   -204486.91    1.6083124 -0.0026819473    61.686424    6290.6228 
 2595000   -204369.21     1.601956 0.00016244607     61.69708    6304.0532 
 2600000   -204424.83    1.6097043 0.0023664711     61.60569    6317.4843 
 2605000   -204448.37      1.60709 -0.0043820422    61.705267    6330.9411 
 2610000   -204537.88    1.6271472  0.010913934    61.499442    6344.4417 
 2615000   -204529.19    1.6155404 4.6702094e-06    61.628802    6357.9099 
 2620000   -204536.24    1.6253364 -0.0010667508     61.64105    6371.3265 
 2625000   -204793.53    1.6950494 0.0040253524    61.544622    6384.7846 
 2630000    -204702.3      1.61221 -0.002048706    61.607065    6398.2548 
 2635000   -204698.57    1.6061153 0.00098751345    61.536028    6411.6864 
 2640000   -204778.31    1.6003298 0.0020230095    61.527906    6425.1115 
 2645000   -204642.59    1.5844161 0.0030302155    61.588637    6438.5766 
 2650000   -204643.55    1.6572932 0.0069130716    61.538429    6452.0384 
 2655000   -204381.43    1.5782905 -0.0033631713    61.690877    6465.4693 
 2660000   -204801.62    1.6202866 0.00090073515    61.588566    6478.9169 
 2665000   -204501.15    1.6323629 0.0010855279    61.600866    6492.3506 
 2670000   -204612.43    1.6315198 -0.0010180276    61.596554    6505.7932 
 2675000   -204596.05    1.6261038 -0.0028368184    61.718171    6519.2664 
 2680000   -204659.96    1.6538039 0.0017251918     61.59739     6532.717 
 2685000   -204736.23    1.5914961 -0.00028804135    61.538577    6546.1517 
 2690000   -204701.07    1.6261282 -0.0010497034    61.616086    6559.6199 
 2695000   -204701.78     1.608262  0.002384083    61.581717    6573.0731 
 2700000   -204736.09    1.6137144 0.0015330486      61.5016    6586.5642 
 2705000   -204666.71     1.608245 -0.0023157672    61.531428    6600.0405 
 2710000   -204828.88    1.6770165 0.0011251098    61.509792    6613.5023 
 2715000   -204666.55    1.6655325 0.0048042673    61.537078     6626.968 
 2720000   -204792.69    1.6336406 -0.00086965822    61.576497    6640.4267 
 2725000   -204521.03    1.6252875 -0.00071436161    61.599643    6653.8921 
 2730000   -204650.31    1.6683033 -0.0016567974    61.604074    6667.3256 
 2735000   -204812.12    1.6673404 -0.0059364079    61.599681     6680.775 
 2740000   -204726.65    1.6667259 -0.0032166965    61.632622    6694.2616 
 2745000   -204717.43    1.6102099 -0.0035744218    61.611443    6707.7416 
 2750000   -204726.15    1.6016258 -0.006626734     61.61082    6721.2168 
 2755000    -204872.4    1.5835181 0.0011359592    61.525041    6734.6908 
 2760000   -204744.93    1.6349649 0.0012548987    61.579185    6748.1447 
 2765000   -204702.41    1.6002982 -0.00092216364     61.54315    6761.5758 
 2770000   -204590.06    1.6011081 -0.0036464725    61.599167    6775.0023 
 2775000   -204717.01    1.6088932 -0.0036166593    61.605697    6788.4616 
 2780000   -204519.66    1.6193515 -0.001478354    61.651824     6801.894 
 2785000    -204511.5    1.6452199 0.0095164118    61.615996    6815.3122 
 2790000    -204524.6    1.6305209 -0.001863659    61.653803     6828.708 
 2795000   -204617.92    1.6527633 0.0026477885     61.57132    6842.1772 
 2800000    -204567.8    1.6745555 -0.0019756281    61.715661    6855.6137 
 2805000   -204556.22    1.6303439 0.00039424203    61.630228    6869.0507 
 2810000   -204679.38    1.6574697 0.0055283176    61.536422    6882.5081 
 2815000   -204601.37    1.6047079 0.0042494682    61.557103    6895.9643 
 2820000   -204535.98    1.5571892 -0.0052186171    61.674048    6909.4085 
 2825000   -204645.82    1.6697509 0.0024440888    61.530722    6922.8745 
 2830000   -204507.63    1.6086492 0.0028949901    61.560282    6936.3075 
 2835000   -204447.67    1.6215423 -0.011739207    61.778175    6949.7747 
 2840000   -204588.01    1.6131649 -0.0039773374     61.71215    6963.1983 
 2845000    -204546.3    1.6758156  0.001377097    61.623661    6976.6354 
 2850000   -204520.88     1.636982 0.00019807691    61.597986    6990.0656 
 2855000   -204609.82    1.5961174  0.004439243    61.560829     7003.542 
 2860000   -204842.33    1.5947785 -0.0015507673    61.527549    7017.0407 
 2865000   -204636.61    1.6366523 -0.0026054744    61.589802    7030.5316 
 2870000   -204516.93     1.583316 -0.0038268741    61.628093    7043.9926 
 2875000   -204474.31    1.6032502 -5.4021877e-05    61.583083    7057.4064 
 2880000    -204542.2    1.6250365 -0.0046221831    61.623656    7070.8483 
 2885000   -204718.54     1.629565 -0.004372571    61.603631    7084.2799 
 2890000   -204706.12    1.5773656 0.0022013956     61.55177    7097.7277 
 2895000   -204748.39    1.6004064 -0.0014464892    61.637464    7111.1723 
 2900000   -204592.42    1.6026355 0.0020278547    61.584359    7124.5701 
 2905000   -204423.46    1.5924752 -0.0019567602    61.682095    7137.9728 
 2910000   -204533.01     1.609665 -0.00011159233    61.663014    7151.3818 
 2915000   -204392.69    1.6261144 -0.0035606378    61.745501    7164.8081 
 2920000   -204771.28    1.6655866 -0.0017250502    61.629755    7178.2336 
 2925000   -204700.28    1.6493763 0.00097648105    61.594169    7191.6898 
 2930000    -205002.9    1.5600817 0.00018393187    61.472558    7205.1488 
 2935000      -204712    1.6531039 -0.004968438    61.638554    7218.6283 
 2940000   -204836.68    1.6281363 1.3950579e-05    61.518942    7232.0901 
 2945000   -204700.39    1.6325752 2.4623999e-05    61.558193    7245.5261 
 2950000   -204717.82    1.6848349 0.0073903738    61.490028    7258.9673 
 2955000   -204838.43    1.5850282 0.0070978352    61.438825    7272.4284 
 2960000   -204750.12    1.6116464 -0.0044897738    61.561395    7285.9224 
 2965000   -204458.13    1.6754513 -0.0025982132    61.633222    7299.3849 
 2970000   -204767.29    1.6042735 0.0056020023    61.467842    7312.8278 
 2975000   -204765.61    1.5877807 -0.0043152814    61.548639    7326.2943 
 2980000   -204940.13    1.6005347 -0.0033917271    61.522251    7339.7606 
 2985000   -204877.04    1.5783528 -0.0069652841    61.613812    7353.2243 
 2990000   -204793.83    1.6195508 -0.0027855524    61.554352    7366.7356 
 2995000   -204807.61    1.6210101 0.0048066771    61.468152    7380.2024 
 3000000   -204699.26    1.5965777 -0.0032762178    61.622218    7393.6388 
 3005000   -204635.44    1.6065798 0.0013208084    61.597863    7407.0846 
 3010000   -204578.74    1.6382833 -0.0027030629    61.691744    7420.4926 
 3015000   -204411.52    1.6024417 -4.2946879e-05    61.650772    7433.9199 
 3020000   -204491.98    1.6194319 -0.00053896837    61.637803    7447.3642 
 3025000   -204430.74    1.6020122 -0.0026947705    61.645342    7460.8299 
 3030000    -204740.2    1.6205815 0.0053988768    61.511493    7474.2941 
 3035000   -204657.84     1.609116 0.0063965269    61.523627    7487.7487 
 3040000   -204569.56    1.6045089 0.0025227618    61.667999    7501.1917 
 3045000   -204567.35    1.5971638 -0.0050207911    61.739836    7514.6237 
 3050000   -204645.15    1.6780427 0.00036706182    61.659297    7528.0456 
 3055000   -204494.68     1.564276 -0.0013634313     61.66542    7541.4836 
 3060000   -204536.98    1.5690687  0.002080501    61.636155    7554.9234 
 3065000   -204651.29     1.592545 -0.0021811945    61.598405    7568.3773 
 3070000   -204665.65    1.6243704 -0.0016453748    61.599016      7581.91 
 3075000   -204697.51    1.5890726 0.0043602908    61.560094    7595.3849 
 3080000   -204730.72    1.5780481 0.00056179818    61.572816    7608.8693 
 3085000   -204777.13    1.6674213 0.00058759337     61.60122    7622.3046 
 3090000   -204705.73     1.620961 0.00052666851    61.597871    7635.7353 
 3095000   -204409.45    1.6516114 5.8714704e-05    61.635137    7649.1758 
 3100000   -204638.64    1.6118372 -0.0025164342    61.619547    7662.6263 
 3105000   -204743.67    1.6547131 -0.0057874922    61.642038    7676.1046 
 3110000   -204556.97    1.6251678 -0.0024930949    61.585913    7689.5271 
 3115000   -204500.43    1.6428837 -6.3279283e-05    61.641971    7702.9513 
 3120000   -204541.47    1.6145528 -0.0014764824    61.643961    7716.3947 
 3125000   -204453.21    1.5715802  0.005462903    61.655006      7729.82 
 3130000   -204600.43    1.6244439 -7.4678007e-05    61.642147    7743.2822 
 3135000   -204511.96    1.6317265 0.0066954633    61.562629     7756.734 
 3140000   -204506.78     1.656278 0.0018427373    61.605712    7770.1817 
 3145000   -204653.91     1.632158 0.00028024241    61.637885    7783.6155 
 3150000   -204606.61    1.5830104 0.00091571144    61.619429    7797.0457 
 3155000   -204619.57    1.6225677 0.0069243163    61.522027    7810.4969 
 3160000   -204692.42    1.6336237 0.0080554757    61.533937    7823.9834 
 3165000   -204572.52    1.5619746 0.0012601058    61.649727    7837.4133 
 3170000   -204658.96    1.6161297 -0.0047282635    61.604735     7850.903 
 3175000   -204917.08    1.6746228 0.00059901403    61.448946     7864.362 
 3180000   -204811.85    1.6462246 0.0011780147    61.542142    7877.8399 
 3185000   -204653.26    1.6165414 -0.0005675193    61.620494    7891.2932 
 3190000   -204800.72    1.5892209  0.003757874    61.514126    7904.7554 
 3195000    -204809.6    1.5855194 -0.0042995841    61.616803    7918.1732 
 3200000      -204751    1.6135235 -0.00052130944    61.528461    7931.6565 
 3205000   -204869.88    1.6164863 -0.0012502485    61.543413    7945.0784 
 3210000   -204466.51    1.6291733 0.0032643579    61.649631    7958.4821 
 3215000   -204542.49    1.6460561 -0.0016037041    61.657331    7971.8983 
 3220000   -204659.22    1.6152676 -0.00027430847    61.626034    7985.3208 
 3225000   -204702.18     1.637408 0.0035815546    61.582741     7998.731 
 3230000   -204755.12    1.6282441 -0.0096412046    61.702368    8012.1658 
 3235000   -204831.11    1.5873851 0.00031040257    61.516838     8025.625 
 3240000    -204739.6    1.5768363 -0.0050007283    61.584411    8039.0693 
 3245000   -204943.53    1.6082693 0.0059321109    61.485401    8052.5404 
 3250000   -204718.08    1.6488029 -0.00035793326    61.580938    8065.9683 
 3255000   -204799.32    1.5916636 -0.0019727964    61.555223    8079.3988 
 3260000   -204766.44    1.6270968 0.0048923218    61.460718    8092.8311 
 3265000   -204760.86    1.6237366 -0.0035910287    61.554401    8106.2781 
 3270000   -204874.96    1.6484255 -0.0013400741    61.500972    8119.7417 
 3275000   -204741.89    1.6011946 0.0015488336    61.518894    8133.2178 
 3280000   -204636.28    1.6192328 -0.0071204491    61.609889     8146.662 
 3285000   -204619.95    1.5946418  0.000641879    61.588419     8160.115 
 3290000   -204810.86    1.5999656 0.0014223504    61.507282    8173.6333 
 3295000   -204845.37    1.5754088 -0.0020109873    61.506947    8187.1312 
 3300000   -204841.64    1.6217533 -0.00092449775    61.567647    8200.6076 
 3305000   -204661.18    1.6140897 0.0020069208    61.594829    8214.0537 
 3310000   -204782.37    1.6603308 -0.0029085509    61.598829     8227.531 
 3315000   -204512.27    1.5971629 -0.0015170116    61.685677     8240.965 
 3320000   -204740.11    1.5998224 -0.0027489934    61.608049    8254.3873 
 3325000    -204494.3    1.6256347 -0.0023184458    61.680657    8267.7877 
 3330000   -204463.15    1.5837602 0.0041239114    61.640305    8281.1946 
 3335000   -204265.76    1.6027803 -0.0011492133    61.745112    8294.6196 
 3340000   -204599.93    1.6275025 0.0011231166    61.606638    8308.0576 
 3345000   -204562.39    1.6318319 -0.0034769701    61.660149    8321.4553 
 3350000    -204375.7    1.6164027 0.0036065599    61.599768    8334.9195 
 3355000   -204421.26    1.5739834 0.00018254617     61.65796    8348.3334 
 3360000   -204557.48    1.5664768 -0.0029452015    61.642888    8361.7614 
 3365000    -204518.2    1.6336418 0.0044908535    61.619643    8375.2365 
 3370000   -204562.92    1.6582901 0.0014031114    61.612238    8388.7025 
 3375000   -204765.01    1.6416101 0.00019754217    61.565515    8402.1143 
 3380000   -204364.62    1.6686168 0.0049720716    61.604763    8415.5441 
 3385000   -204423.71    1.5918971 -0.00016870621    61.690702    8428.9793 
 3390000   -204449.98    1.6088176 -0.00099149931    61.656034    8442.3869 
 3395000   -204510.26    1.6641733 -0.0037735633    61.742389    8455.7724 
 3400000   -204685.97    1.6167755 0.0038278121    61.576147    8469.1658 
 3405000    -204549.6     1.646544 0.0019960399    61.650846    8482.6043 
 3410000   -204452.86    1.5896986 0.0014512819    61.650598    8496.0503 
 3415000    -204711.4    1.6565659 0.00077422402    61.650252    8509.4641 
 3420000   -204719.86    1.6190013 0.0046456716    61.502568    8522.8957 
 3425000   -204722.92    1.6035639 0.0034148034     61.52254    8536.3507 
 3430000   -204610.19    1.5832331 -0.0059050201    61.618451    8549.8078 
 3435000    -204787.5    1.6454406 0.0027408282    61.517297    8563.3087 
 3440000   -204574.96    1.5811275 -0.00036580149    61.618931    8576.7817 
 3445000   -204701.99    1.6559646 -0.00089653005    61.621958    8590.2561 
 3450000   -204642.28    1.6251068 -0.0015206085    61.617918    8603.7107 
 3455000   -204728.91    1.6232234 -0.001012358    61.614328    8617.1454 
 3460000   -204800.62    1.6343677 -0.0027995532    61.548471     8630.599 
 3465000    -204759.2    1.6333917 -0.0045878267    61.571619    8644.0593 
 3470000   -204541.03    1.6110392 -0.0045621771    61.681046    8657.5107 
 3475000   -204882.35    1.6335912 0.0084087709    61.404352    8670.9725 
 3480000   -204893.71    1.6617293 -0.0021041104    61.536554     8684.417 
 3485000   -204664.35    1.6033288 0.0012845511    61.565316    8697.9317 
 3490000   -204380.07    1.5962244 0.00056911877    61.669868    8711.3724 
 3495000   -204400.15    1.6307807 0.0045918648    61.660422     8724.797 
 3500000   -204526.95    1.6149686 0.0015065487    61.592271    8738.2088 
 3505000   -204675.33    1.6562766 -0.0007024033    61.574607    8751.6477 
 3510000   -204598.41    1.6206146 0.0014042902    61.572012    8765.0676 
 3515000   -204638.35    1.5641025 -0.0023579403    61.582103     8778.547 
 3520000   -204625.64    1.6454881 -0.0018723637    61.566549    8792.0153 
 3525000   -204670.88    1.6586032 -0.00092961053    61.613034    8805.4563 
 3530000   -204805.13    1.6570852 0.00063894249    61.485873    8818.8799 
 3535000   -204771.08    1.5862055 0.0068636662    61.518137    8832.3339 
 3540000    -204731.3     1.630315 -0.0029336098    61.637562    8845.8155 
 3545000   -204674.53    1.5947563 0.0070271056    61.515674      8859.28 
 3550000   -204828.19    1.6190013 0.0065440812    61.481256    8872.7503 
 3555000   -204704.58    1.6371009 0.0080352088    61.565436    8886.2031 
 3560000   -204723.05    1.6075822 -0.0047186639    61.695936    8899.6669 
 3565000    -204853.8    1.6021131 -0.0042481045    61.616583    8913.1247 
 3570000   -204902.83    1.6014381 -0.0033714761    61.609052    8926.5651 
 3575000   -204743.26    1.6006446 -0.002018156    61.646837    8939.9768 
 3580000    -204874.8    1.6212888 0.00025554546    61.577981    8953.4233 
 3585000   -204827.18    1.6533621 0.0027315513    61.530943    8966.8662 
 3590000   -204807.06    1.6526058 -0.00084094752    61.610902    8980.3201 
 3595000   -204820.73    1.6208184 0.00067438021    61.534168    8993.7785 
 3600000   -204707.58    1.5724769 -0.0015502804    61.637504    9007.2114 
 3605000   -204640.42    1.6672213  0.004088565    61.614967    9020.6393 
 3610000   -204733.72    1.5819172 0.0028941636    61.591997    9034.1027 
 3615000   -204817.01    1.5946953 -0.0038681453    61.599966    9047.5725 
 3620000   -204828.89    1.6096737 0.0046114386    61.439924    9061.0339 
 3625000   -204729.77    1.6123572 0.0073889746    61.455421    9074.4747 
 3630000   -204683.21    1.6578121 0.0004146292    61.507981    9087.9096 
 3635000   -204983.35    1.6304741 0.0052435981    61.469912    9101.3482 
 3640000    -205012.7    1.6223454 0.00010555437    61.457439    9114.7982 
 3645000   -204837.77    1.6364921 -0.00089628435    61.460244    9128.2595 
 3650000   -204869.91    1.6283771 0.0022667806    61.516757    9141.7135 
 3655000   -204774.27    1.6715302 0.0010587827    61.580156    9155.1619 
 3660000    -204672.4    1.6435381 -0.0047776884    61.590972    9168.5944 
 3665000   -204714.33    1.6241538 0.0035025106    61.511146    9182.0277 
 3670000   -204612.96    1.6725171 -0.0014807154    61.610899    9195.4771 
 3675000   -204723.89    1.6274212 -0.00044608129    61.552959    9208.9793 
 3680000   -204698.41    1.6289531 0.0026170278    61.510822    9222.4767 
 3685000   -204679.78    1.6501625 -0.00052440676    61.562284    9235.9189 
 3690000   -204597.27    1.6421715 0.0011649068    61.593029    9249.3917 
 3695000   -204843.54    1.5832152 -0.00014801749    61.583448    9262.8474 
 3700000   -204799.53     1.599766 0.00023683169    61.529498    9276.2863 
 3705000   -204798.38    1.5948808 0.0016054073    61.526554    9289.7041 
 3710000   -204917.79    1.6570063 -0.0037862171    61.551444    9303.2087 
 3715000   -204822.02     1.567263 -0.0011557543     61.56961    9316.6985 
 3720000   -204674.56    1.5976508 -0.0087376041    61.701982    9330.2029 
 3725000   -204569.82     1.623254 0.0062745004    61.598946    9343.6558 
 3730000   -204606.89    1.6439034 -2.900452e-05    61.657277    9357.1191 
 3735000   -204418.11    1.6203813 0.0056716509    61.582652    9370.5523 
 3740000   -204553.08    1.5654893 0.0011330338    61.635787    9383.9838 
 3745000    -204584.3    1.6361867 0.0018613511    61.592002    9397.4012 
 3750000   -204619.33    1.6147931 0.0092094898    61.511747    9410.8418 
 3755000   -204539.49      1.64574 0.0039289764    61.581331    9424.2661 
 3760000   -204709.99    1.6095523 -0.00017497227    61.563675    9437.7387 
 3765000    -204784.1    1.6115112  0.003376635    61.502163    9451.1861 
 3770000   -204602.34    1.6430836 0.0031827532     61.56119    9464.6226 
 3775000   -204689.52    1.6088821 0.0057818411    61.502706    9478.0974 
 3780000   -204774.68     1.592637 -0.00067036371    61.577677    9491.5602 
 3785000   -204694.07    1.6169104 -0.0026719802    61.603997     9505.033 
 3790000      -204508    1.5787103 -0.0031928682    61.659212    9518.5133 
 3795000   -204578.06    1.5904194 0.00016623549    61.616965    9531.9495 
 3800000   -204727.28    1.6045833 0.0025262403    61.518245    9545.4089 
 3805000   -204870.64    1.6228889 0.00038667104    61.488721    9558.8826 
 3810000   -204828.38    1.6080758 0.0043979965    61.446043    9572.3628 
 3815000   -204998.54    1.5755946 -0.0064866471    61.554382    9585.7937 
 3820000   -204888.24    1.6094637 -0.0034081894    61.590429    9599.2458 
 3825000   -205013.16    1.6341491 0.0056701763    61.425994    9612.7001 
 3830000   -204855.67    1.6282514 -0.0012126865    61.507647    9626.1655 
 3835000   -204863.85    1.6090756 -0.00059766122    61.540601    9639.5971 
 3840000   -204652.01    1.6344133 0.0044913916    61.547695    9653.0317 
 3845000   -204535.37    1.6408926 0.0030463338    61.646788    9666.4648 
 3850000   -204790.39    1.5805497 -0.0037983886    61.591928    9679.9021 
 3855000   -204870.47    1.6527672 0.00051937231    61.563301    9693.3902 
 3860000   -204819.69    1.6021072 0.0028607569    61.564751    9706.8499 
 3865000   -204580.27    1.6714117 -0.002924103    61.663256    9720.3316 
 3870000   -204542.01    1.6341755 0.00019903776    61.635861    9733.7878 
 3875000   -204613.47    1.6218195 -0.0042948891    61.616265    9747.2077 
 3880000   -204730.64    1.6255091 0.0016809439    61.542379    9760.6669 
 3885000   -204756.51    1.6542826 0.00021228811    61.605449     9774.125 
 3890000    -204540.3    1.5713283 -0.0064658682    61.717934    9787.5521 
 3895000    -204747.4    1.6058832 -0.0012197866    61.583942    9800.9474 
 3900000   -205078.74    1.6526818 0.00027972797     61.45435    9814.3668 
 3905000   -204814.53     1.614137 -0.00089460598    61.538864    9827.8205 
 3910000   -204669.12    1.6090519 -0.0018356344    61.605291    9841.2228 
 3915000   -204839.27    1.6474552 -0.0016357107    61.585848    9854.6588 
 3920000   -204993.77    1.6726473 0.0047512513    61.469381    9868.1147 
 3925000   -204571.42    1.6326843 -0.0046149018     61.67077    9881.5808 
 3930000   -204641.22    1.6262736 0.0067071134    61.549166    9894.9878 
 3935000   -204763.44    1.6557029 -0.0014539081    61.605985    9908.3677 
 3940000   -204891.17    1.6106751 -0.0017469211    61.575561    9921.8002 
 3945000   -204802.12    1.5918238 -0.0081313669    61.588578     9935.222 
 3950000   -204894.25    1.6107722 0.0029741085    61.510933    9948.6857 
 3955000   -204920.68    1.6331821 0.0028882951    61.487852    9962.1446 
 3960000   -204463.66     1.569701 -0.006851256    61.742128    9975.5988 
 3965000    -204698.3    1.6339547 0.0035039583    61.606774    9989.0107 
 3970000   -204501.46    1.6607194 0.0076756337    61.567946    10002.453 
 3975000   -204556.66    1.6234336 -0.0038813111    61.658822    10015.881 
 3980000   -204738.42    1.6291403 0.0036170242    61.490644    10029.317 
 3985000   -204884.81    1.6024779 0.0021258139    61.462369    10042.791 
 3990000   -204555.52    1.6533103 0.0024244233    61.549647    10056.273 
 3995000   -204693.56    1.6004833 0.0054567728    61.502323    10069.729 
 4000000   -204742.14    1.6080732 -0.0020221421    61.582313    10083.165 
 4005000   -204656.25    1.6394142 -0.00030429517    61.598318     10096.58 
 4010000   -204792.34    1.5683944 -0.0066980115    61.627177    10110.029 
 4015000   -204718.07    1.5980611 -0.0011482161    61.598575    10123.472 
 4020000   -204592.57     1.614584 0.0088409058    61.485975    10136.876 
 4025000   -204727.43    1.5945553 -0.0050585007    61.601044    10150.317 
 4030000   -204848.59    1.5723808 -0.0022944568    61.512239    10163.799 
 4035000   -204750.57    1.6083957 -0.0055262735    61.617588    10177.278 
 4040000   -204693.84    1.5798429 0.0018547075    61.530809    10190.789 
 4045000   -204534.38     1.588365 0.0024658473    61.596054    10204.269 
 4050000   -204687.53    1.6228727 0.0070652847    61.542756    10217.723 
 4055000   -204915.73     1.693053 0.0039355192    61.460101    10231.146 
 4060000   -204788.46    1.5849102 0.0031261766    61.466786    10244.585 
 4065000   -204819.28    1.6623508 -5.3300819e-06    61.474432    10258.043 
 4070000   -204775.21    1.6435516 -0.0038490802    61.582421     10271.53 
 4075000   -204718.41    1.6137784  0.004559498    61.464618    10284.998 
[...]
 9085000   -204771.53    1.6617333 0.00062671357    61.555831      23763.2 
 9090000    -204661.9    1.6664046 -0.0021083472    61.634969    23776.658 
 9095000   -204303.74    1.6244938 -0.0056867639    61.749288    23790.088 
 9100000   -204310.28    1.5659026 0.0026477633    61.675024    23803.528 
 9105000   -204605.05    1.6293895 -0.0022175293    61.676091    23816.971 
 9110000   -204504.67    1.6180482 -0.00024730393    61.666023      23830.4 
 9115000   -204641.59    1.6033227 -0.0035423373    61.651004    23843.828 
 9120000   -204587.53    1.5844424 -0.00075402592    61.640269    23857.275 
 9125000   -204630.39    1.6215829 -0.0058276508    61.653933    23870.735 
 9130000   -204773.95    1.5961513 0.0083738994    61.445571    23884.207 
 9135000   -204538.59    1.6080205 -0.0068717642    61.623715     23897.71 
 9140000   -204807.44    1.6168702 0.0017702401    61.572961     23911.19 
 9145000   -204650.03    1.6348028 0.0039705248    61.556643    23924.635 
 9150000   -204613.29    1.5897233 0.00028793118    61.611083    23938.118 
 9155000   -204442.56    1.5667425 -0.0017715801    61.646168    23951.533 
 9160000    -204548.8    1.6218031 -0.0019627655    61.602661    23964.965 
 9165000   -204488.58    1.6405625 -0.0012512789    61.600636    23978.417 
 9170000   -204718.47    1.6617518 0.0053197739    61.554723    23991.831 
 9175000    -204502.5    1.5561588 -0.0051505533    61.712813    24005.263 
 9180000   -204625.44    1.6101237 0.00090464064    61.631702    24018.739 
 9185000   -204712.83    1.6080269 0.0015828975     61.60602    24032.229 
 9190000   -204708.98    1.6031256 0.00089866635    61.585556    24045.744 
 9195000   -204694.93    1.5883679 -0.00076145094    61.571883    24059.259 
 9200000    -204662.2    1.5940222 -0.0012674118    61.618027    24072.707 
 9205000   -204751.07    1.6590752 -0.0031151943    61.605781    24086.147 
 9210000    -204649.1    1.6465309  0.004449451    61.517758     24099.62 
 9215000   -204586.28    1.6285038 -0.0002435421    61.629233    24113.082 
 9220000   -204609.56    1.6168326 0.0047306433    61.567887    24126.503 
 9225000   -204585.17    1.5957496 0.0012215157    61.627978    24139.934 
 9230000   -204542.54    1.6111519 -0.006088741    61.664607    24153.373 
 9235000    -204554.1    1.6676428 0.00032530968    61.597263    24166.777 
 9240000   -204638.06    1.6053747 -0.0032375189    61.597318    24180.214 
 9245000   -204465.88    1.5504235 -0.0046951731     61.67163    24193.681 
 9250000   -204579.22    1.6222133 0.00023739854    61.650992    24207.097 
 9255000   -204498.08    1.5959241 0.0010850066    61.626836    24220.508 
 9260000   -204629.05    1.6088748 0.0029340455    61.607683    24233.983 
 9265000    -204718.5    1.6587176 0.0074329553    61.487859    24247.484 
 9270000   -204711.65    1.6191796 -0.0013751053    61.566455    24261.004 
 9275000   -204630.85    1.6239651 0.0040500584     61.54645    24274.504 
 9280000   -204595.41    1.6343678 -0.0018699042    61.654771    24288.018 
 9285000   -204626.76    1.6194861 0.0023952612    61.545233    24301.495 
 9290000   -204745.54    1.6212094 -0.00096458279    61.595241    24314.959 
 9295000   -204672.85    1.6116798 -0.0014155277    61.580929    24328.508 
 9300000   -204480.37    1.6158327 0.0011225404     61.62924    24341.968 
 9305000   -204465.53     1.587888 -0.0028862217    61.685429    24355.447 
 9310000    -204462.7    1.6470646 0.0080779719    61.569691    24368.906 
 9315000   -204491.72    1.6144215 -0.0053953517    61.743483    24382.378 
 9320000   -204466.22    1.5508561 -0.0015370042    61.681966     24395.81 
 9325000   -204454.45    1.5837922 -0.0035333439    61.740048    24409.208 
 9330000   -204538.67    1.5806356 -0.0024637914    61.629435    24422.637 
 9335000   -204375.86    1.6429758 -0.0012027307    61.616055    24436.064 
 9340000   -204543.06    1.6212577 0.0084061176    61.498478      24449.5 
 9345000   -204918.49    1.6364454 0.00016412049     61.45325    24462.935 
 9350000   -204822.24    1.5877122  0.003880394    61.525761    24476.357 
 9355000   -204672.66    1.6826161 0.0066636871     61.48151    24489.817 
 9360000   -204775.41    1.5742807 -4.9552203e-05    61.530912    24503.266 
 9365000   -204601.49    1.6978386 -0.00031653471    61.543498     24516.73 
 9370000   -204657.06    1.6286368 -0.0029273977     61.60045    24530.173 
 9375000   -204814.26    1.6377389 0.0077639041    61.435145    24543.637 
 9380000   -204834.23     1.628568 0.0044914073     61.46831     24557.08 
 9385000   -204710.61    1.5736796 0.0036259901    61.536498    24570.531 
 9390000   -204555.13    1.6114817 0.0011422611    61.629801    24583.956 
 9395000   -204837.76     1.636967 -0.0031606975    61.577888    24597.413 
 9400000   -204807.86    1.5866059 -0.0046644101    61.574007    24610.879 
 9405000   -204712.71    1.6482923 0.0016400948    61.527648    24624.356 
 9410000   -204872.91    1.5856215 0.0014387874    61.546525    24637.767 
 9415000   -204715.56    1.5894011 -0.0015764097    61.595947    24651.192 
 9420000   -204687.56    1.6134345 -0.0062928811    61.701784    24664.636 
 9425000   -204557.77    1.6301596 -0.0016836851    61.680286    24678.083 
 9430000   -204502.77    1.6378877 9.9211628e-05    61.640758    24691.488 
 9435000   -204418.07    1.6934777 -0.00060586086    61.727119    24705.002 
 9440000   -204415.01    1.6457715 -0.00068367907    61.727916    24718.522 
 9445000   -204718.96    1.6156673 0.0043143128    61.543811    24732.008 
 9450000   -204455.86    1.6222045 0.00024956126    61.657075    24745.418 
 9455000   -204343.19    1.6949807 -0.0074423924    61.814733    24758.814 
 9460000   -204582.25    1.5972199 0.00095254837    61.676414    24772.194 
 9465000   -204534.76    1.6102516 0.0017025503     61.64712    24785.623 
 9470000   -204450.64    1.6089627 0.0018426648     61.65161    24799.003 
 9475000   -204624.39    1.5879306 -0.0013131134     61.67683    24812.417 
 9480000   -204505.38    1.6251578   0.00493743    61.603232    24825.832 
 9485000   -204577.19    1.6496075 -0.0089186882    61.729039    24839.249 
 9490000   -204540.06    1.6069371 -0.0030046951    61.602329    24852.686 
 9495000   -204562.42     1.613894 0.00030934225    61.590686    24866.097 
 9500000   -204683.43    1.6158314 -0.0016269826    61.624963    24879.506 
 9505000   -204734.52    1.6240684 -0.0027003512    61.598651    24892.937 
 9510000   -204818.05    1.5860647 0.0028565516    61.506242     24906.39 
 9515000   -204769.29    1.6241748 -0.0075438184    61.621586    24919.839 
 9520000   -204608.87    1.6470497  0.002925461    61.540521    24933.319 
 9525000    -204536.9    1.6730953 -0.0013225184    61.658473    24946.751 
 9530000   -204833.24     1.615166 0.0022826838     61.55342    24960.254 
 9535000   -204811.22    1.6163984 0.0045259668    61.535297    24973.718 
 9540000   -204889.84    1.6318047 -0.00092821946    61.610104    24987.148 
 9545000   -204636.18    1.6291142 -0.004844298    61.664025    25000.615 
 9550000   -204963.29    1.6243234 0.00014041535    61.462812     25014.16 
 9555000   -204775.84    1.6346508 0.0054333652    61.525799    25027.684 
 9560000   -204719.72    1.5501261 -0.001467934    61.567022    25041.209 
 9565000   -204828.42    1.6181393 0.0030760142    61.505655    25054.746 
 9570000   -204781.74     1.578777 -0.0018513752    61.566465    25068.296 
 9575000   -204651.52    1.6042964 0.0025739241    61.602134    25081.843 
 9580000    -204610.5    1.6117419 0.0023870044    61.565897    25095.325 
 9585000   -204845.36    1.6304469 -0.0017912931    61.525846    25108.819 
 9590000   -204795.19     1.655223 -0.00081050759     61.51872    25122.291 
 9595000   -204664.74     1.622383 0.0024016555    61.550079    25135.749 
 9600000   -204822.03    1.5957801 0.0021725944    61.509954    25149.181 
 9605000   -204895.15    1.6474923 -0.00013212602    61.556479    25162.613 
 9610000   -205095.19    1.6002752 -0.001745328    61.460909    25176.031 
 9615000   -204950.04    1.6060911 -7.3828785e-05    61.479346    25189.469 
 9620000   -205060.95    1.6285307 0.00034478522    61.413066     25202.91 
 9625000    -205158.8    1.6244606 0.0014401609     61.42517    25216.375 
 9630000   -204920.58     1.624564 0.0034245972    61.487759    25229.853 
 9635000   -204867.66    1.6322779 -0.0036633776    61.540275    25243.385 
 9640000   -204930.19    1.5715538 -0.0016168397    61.517243    25256.931 
 9645000   -204835.11    1.6398218 -0.0025430012    61.544459    25270.476 
 9650000   -204816.66    1.5859515 -0.00017729497    61.525287    25284.052 
 9655000   -204855.36    1.5885402 -0.0011808416    61.491762    25297.571 
 9660000   -204849.69    1.6153155 0.0011271328    61.530511    25311.114 
 9665000    -204806.9    1.5922892 0.0046043009    61.507532    25324.648 
 9670000   -204960.89    1.5965111 -0.00061735806     61.55343    25338.171 
 9675000   -204968.64    1.5899756 0.0033500738    61.491425    25351.693 
 9680000   -204723.41    1.6402167 0.0011832452    61.573746    25365.169 
 9685000   -204844.68    1.6484343 0.0018408826    61.551521    25378.698 
 9690000   -204960.19    1.6324518 0.0020546725    61.507257    25392.188 
 9695000   -204714.16    1.6405973 -0.0070705224    61.632121    25405.706 
 9700000   -204610.25    1.6480295 0.0024222681    61.618327     25419.19 
 9705000   -204612.94    1.6250649 -0.0010459776    61.585079    25432.696 
 9710000   -204768.43    1.6229877 -0.00047635335    61.551344    25446.166 
 9715000   -204521.46    1.6588162 0.0012188664    61.592768    25459.658 
 9720000   -204478.55    1.5762286 0.0064098728    61.581498    25473.096 
 9725000   -204664.59    1.5489609 -0.0041582889    61.646338    25486.569 
 9730000   -204981.97     1.588471 0.0032327121    61.509675        25500 
 9735000   -204765.22    1.5908351 0.0024465852    61.561444    25513.458 
 9740000    -205082.8    1.5988487 0.0001452903    61.479878    25526.935 
 9745000    -205019.2    1.6302788 0.0031835514    61.463782    25540.369 
 9750000   -204848.26    1.6165295 0.0018538207    61.541968    25553.871 
 9755000   -204867.09    1.6085388 0.00059424134    61.511239    25567.347 
 9760000    -204912.5    1.6327117 0.0033286174    61.487746    25580.798 
 9765000    -205025.7    1.6251908 0.00050299368    61.471313    25594.282 
 9770000   -204816.36    1.5771104 0.0029251704     61.50743    25607.769 
 9775000    -204670.2    1.5654029 -0.0072808306    61.662377    25621.211 
 9780000   -205021.26    1.5936794 0.0019218382    61.411567    25634.719 
 9785000    -205022.6     1.615856 -0.00092970505    61.497759    25648.223 
 9790000   -204745.28    1.5832799 0.00095505987    61.550978    25661.684 
 9795000   -204658.25     1.618947 -0.00016651148    61.568971    25675.141 
 9800000   -204495.09    1.6006061 -0.0073525903    61.728726     25688.57 
 9805000   -204594.78    1.6617144 0.0039330109    61.526847    25702.007 
 9810000   -204645.42    1.6484001 -0.0046015933    61.662628    25715.452 
 9815000   -204653.64    1.6055597 0.0020539268    61.567254    25728.865 
 9820000   -204585.46    1.6396112 -0.0030003454    61.681142    25742.305 
 9825000   -204796.53    1.6128849 0.0038081052    61.488535    25755.736 
 9830000   -204651.07    1.6467724 -0.00054902384    61.593722    25769.253 
 9835000   -204634.54    1.6127971 -0.0014531083    61.623641     25782.79 
 9840000   -204424.78    1.6282294 0.0067416375    61.575441    25796.339 
 9845000    -204421.3    1.6371306 -0.0049416754     61.71436    25809.851 
 9850000   -204463.54    1.5948188 -0.0039387665    61.741081    25823.381 
 9855000   -204638.52    1.6095747  0.005692311    61.476398    25836.873 
 9860000   -204664.81    1.6263237 -0.0040525803    61.626471    25850.387 
 9865000   -204866.53    1.6241759 0.0022551259    61.476041    25863.825 
 9870000   -204769.24    1.6278458 -0.0073074091    61.641772    25877.277 
 9875000   -204608.12    1.6555301 0.0007683246    61.606869    25890.725 
 9880000   -204433.19    1.5945375 -0.0053130658    61.687999    25904.176 
 9885000   -204525.72    1.6242179 -0.0018287116    61.645503    25917.605 
 9890000   -204585.12     1.589509 -0.001121203    61.569062    25931.073 
 9895000   -204606.22    1.6068421 -0.0019268854     61.56676    25944.482 
 9900000   -204784.26    1.6284198  0.006450488    61.434469    25957.933 
 9905000   -204816.38    1.5637801 -0.0020765183    61.527595    25971.394 
 9910000   -204649.89    1.6129133 0.0025140611    61.518766    25984.787 
 9915000   -204567.67    1.5914841 0.0017862388    61.611409    25998.237 
 9920000   -204432.89    1.5988252 -0.00018533025    61.645966    26011.611 
 9925000   -204471.08    1.5863232 -0.00010089447    61.636936    26025.005 
 9930000   -204486.71    1.6295331 0.0014884553    61.612528    26038.414 
 9935000   -204615.85    1.5935126 -0.0051171245     61.75402    26051.831 
 9940000   -204388.34    1.6219013 0.0039014993     61.66026    26065.212 
 9945000   -204191.01    1.6176106 -0.0038737805    61.810197    26078.653 
 9950000   -204395.04    1.6257414 0.0020166545    61.688017    26092.129 
 9955000   -204207.69    1.6236182 0.00017525392    61.761411    26105.576 
 9960000    -204416.9    1.6196089 0.00097377336    61.673798    26119.057 
 9965000   -204452.73    1.6770762 -0.0041752601    61.665217    26132.528 
 9970000   -204408.99    1.6376425 -0.0041292478    61.726516    26146.044 
 9975000   -204556.22    1.6104748 0.0047155478    61.588154    26159.547 
 9980000   -204656.03    1.6558967 0.0052427474    61.562995    26172.993 
 9985000   -204712.25    1.6166758 0.00068028016    61.556851    26186.452 
 9990000   -204902.32     1.642487 0.0023115175    61.467785    26199.954 
 9995000   -204868.98    1.6127696 0.0080613412    61.426048     26213.45 
10000000   -204571.55    1.6060047 -0.0050589573    61.716698     26226.89 
10005000   -204707.14     1.653588  0.011869841     61.41968    26240.336 
10010000   -204501.95    1.6001054 -0.0047869306    61.689331    26253.748 
10015000   -204525.92    1.5991845 0.0017212741    61.621161    26267.163 
10020000   -204601.56    1.6449278 -0.0064338506    61.686513    26280.631 
10025000   -204608.92    1.6255887 0.00012296296     61.60632    26294.087 
10030000   -204819.35    1.6224392 -0.0013232691    61.576745    26307.588 
10035000   -204574.87    1.6409042 -0.00031160117    61.587288     26321.05 
10040000   -204685.58    1.6590618 0.0060664503    61.534976    26334.504 
10045000   -204663.82    1.6316533 -0.0017581566    61.595311    26347.922 
10050000    -204692.8    1.6228292 -0.0013937978    61.564086    26361.391 
10055000   -204645.01    1.6292638 -0.0024769605    61.589998    26374.859 
10060000   -204742.35    1.6186555 -0.00086749036    61.534125    26388.321 
10065000   -204765.26    1.5648083 -0.0030918016    61.626817    26401.776 
10070000   -204763.37    1.6271338 0.0018429772    61.528215    26415.214 
10075000   -204583.43    1.6549692 0.0018145065    61.646293    26428.649 
10080000    -204696.5    1.6052889 0.0016979308    61.576786    26442.053 
10085000   -204640.26    1.5543382 0.0039027194    61.534415    26455.483 
10090000   -204662.07    1.6212838 -0.0030944829    61.554683    26468.946 
10095000   -204645.32    1.6020326 0.0041892524    61.488919    26482.393 
10100000    -204739.2    1.6141666 -0.001216131    61.571292    26495.816 
10105000   -204761.51    1.6262901 0.0028018363    61.501621    26509.288 
10110000   -204988.94    1.5825224 0.0024043385    61.505595    26522.702 
10115000   -204888.33    1.6370949 -0.00076378718    61.507584    26536.169 
10120000   -204821.45    1.5630769 0.0033511146    61.470435    26549.619 
10125000   -204876.54    1.6002989  0.005441245    61.441003    26563.077 
10130000   -204918.88     1.575448 0.0033241551    61.412529    26576.547 
10135000   -204793.25    1.5976015 0.00022410075    61.466442    26590.022 
10140000   -204750.94    1.6180967 0.0058328113     61.51653    26603.488 
10145000    -204494.9    1.6197737 0.00089550259    61.632184    26616.902 
10150000   -204664.82    1.6067314 0.0023212868    61.561657    26630.321 
10155000   -204709.74    1.6205465 -0.001436614    61.608618    26643.759 
10160000   -204777.28    1.6420963 -0.0046973666     61.62121    26657.215 
10165000   -204450.33    1.6314775 0.0012952867    61.631693     26670.62 
10170000   -204454.31     1.637562 -0.0011996985    61.724785    26684.016 
10175000   -204492.14    1.6102632 0.00018275567    61.696429    26697.455 
10180000   -204569.32    1.6048279 -0.0009370844    61.658772    26710.876 
10185000   -204552.26    1.6428457 -0.0044861935    61.691692    26724.301 
10190000   -204375.03    1.6527774 -0.0014651066    61.629431    26737.734 
10195000   -204464.97    1.6116576 0.0031846351    61.644988    26751.152 
10200000   -204376.09    1.6653658 0.0059686887    61.621694    26764.587 
10205000   -204583.98    1.6167888 -0.0072892342    61.674457     26778.04 
10210000   -204690.71     1.666666 -0.0036063933    61.641926    26791.514 
10215000   -204561.42    1.5853018 -0.003308921    61.627879    26804.961 
10220000   -204682.16    1.6349991 0.0040149711    61.550543    26818.413 
10225000   -204584.52    1.6391181 0.0037207147    61.604608    26831.846 
10230000   -204538.52    1.6316725 -0.0018460867    61.681608    26845.283 
10235000   -204524.12    1.5937051 0.0032164324    61.614974    26858.705 
10240000   -204563.02    1.5687615 -0.00090423173    61.622096    26872.101 
10245000   -204858.09    1.7109199 0.0025272738    61.516987    26885.544 
10250000   -204874.18    1.6237184 -0.00047524516    61.552451    26899.024 
Loop time of 26899 on 8 procs for 10000000 steps with 2304 atoms

Performance: 32120.125 tau/day, 371.761 timesteps/s
94.3% CPU use with 8 MPI tasks x 1 OpenMP threads

MPI task timing breakdown:
Section |  min time  |  avg time  |  max time  |%varavg| %total
---------------------------------------------------------------
Pair    | 5090.7     | 5573.8     | 6344.9     | 533.6 | 20.72
Bond    | 0.99566    | 1.2341     | 1.4799     |  14.4 |  0.00
Kspace  | 10823      | 10962      | 11100      | 109.2 | 40.75
Neigh   | 639.86     | 643.89     | 660.63     |  25.4 |  2.39
Comm    | 1145.2     | 1165.1     | 1193.5     |  46.9 |  4.33
Output  | 0.88941    | 0.91922    | 1.1244     |   8.1 |  0.00
Modify  | 6566       | 7783.6     | 8670.8     | 855.8 | 28.94
Other   |            | 768.9      |            |       |  2.86

Nlocal:        288.000 ave         292 max         281 min
Histogram: 1 0 0 1 0 1 1 0 2 2
Nghost:        6997.62 ave        7034 max        6957 min
Histogram: 1 1 0 0 2 1 1 0 0 2
Neighs:         0.00000 ave           0 max           0 min
Histogram: 8 0 0 0 0 0 0 0 0 0
FullNghs:      291226.0 ave      295502 max      283671 min
Histogram: 1 0 0 1 0 1 1 0 3 1

Total # of neighbors = 2329810
Ave neighs/atom = 1011.2023
Ave special neighs/atom = 0.0000000
Neighbor list builds = 72942
Dangerous builds = 0

## ----- deletion for small NPs and salt ----- ##
#    reset_timestep 0

#    label checking

#    compute     peatom    all   pe/atom
#    variable    exppe    atom    exp(2*c_peatom/${ttemp})
#    compute     aveS    small   reduce ave v_exppe
#    compute     aveCl   anion   reduce ave v_exppe
#    compute     aveNa   cation  reduce ave v_exppe

#    fix AVE all ave/time 5 ${repeat} ${freq} c_aveS c_aveCl file average.dat
#    thermo 10000
#    thermo_style custom step pe c_press lx cpu
#    thermo_modify norm no flush yes
#    fix AVE all ave/time 1 ${repeat} ${freq} c_aveS c_aveCl c_aveNa
#    variable    chempNP equal ${ttemp}*(ln(v_numS/vol)+ln(v_numCl/vol)*25+ln(f_AVE[1])+ln(f_AVE[2])*25)
#    variable    chempS  equal ${ttemp}*(ln(v_numNa/vol)+ln(v_numCl/vol)+ln(f_AVE[2])+ln(f_AVE[3]))
#    timestep 0.0005
#    run ${freq}

#    print "done! ChempNP= ${chempNP}" append potential.dat
Total wall time: 7:49:06
