LAMMPS (27 Oct 2021)
OMP_NUM_THREADS environment is not set. Defaulting to 1 thread. (src/comm.cpp:98)
  using 1 OpenMP thread(s) per MPI task
package gpu 0
package gpu 2 neigh no pair/only on
#Lammps gcmc code for electrolytes

## ----- Simulation times ----- ##
    variable t_nve      equal 50000             #nve/limit
    variable t_deform 	equal 50000            #nvt
    variable t_pressed 	equal 50000            #nvt
    variable t_relaxed 	equal 100000            #nvt
    variable t_eq 	equal 5000000           #nvt

    variable smallc	equal 10
    variable bigc	equal -80
    variable numB	equal 256
    variable numS	equal ${numB}*8
    variable numS	equal 256*8
#    variable numCl	equal ${numS}*${smallc}+${bigc}*${numB}

## ----- Environment setting ----- ##
    boundary p p p
    atom_style full

## ----- System Variables  ----- ##
    variable    ttemp       equal   1.6          	#reduced temperature
    variable    ppress      equal   0			#osmetic pressure
    variable    cutoff_pppm equal   28.3	        #cutoff for the real part of pppm
    variable	ipress      equal   0.1

    variable    bigd        equal   10                      #LJ sigmas
    variable    smalld      equal   2
    variable    d_bs        equal   0.5*(${bigd}+${smalld})
    variable    d_bs        equal   0.5*(10+${smalld})
    variable    d_bs        equal   0.5*(10+2)

    variable    cut_small   equal   ${smalld}*1.122462	    #cutoffs for LJ
    variable    cut_small   equal   2*1.122462	    
    variable    cut_big     equal   ${bigd}*1.122462
    variable    cut_big     equal   10*1.122462
    variable    cut_bs      equal   ${d_bs}*1.122462
    variable    cut_bs      equal   6*1.122462


## ----- Initialization and grouping ----- ##
    read_data config_fcc8.dat
Reading data file ...
  triclinic box = (-80.000000 -80.000000 -80.000000) to (80.000000 80.000000 80.000000) with tilt (0.0000000 0.0000000 0.0000000)
  2 by 2 by 2 MPI processor grid
  reading atoms ...
  2304 atoms
Finding 1-2 1-3 1-4 neighbors ...
  special bond factors lj:    0        0        0       
  special bond factors coul:  0        0        0       
     0 = max # of 1-2 neighbors
     0 = max # of 1-3 neighbors
     0 = max # of 1-4 neighbors
     1 = max # of special neighbors
  special bonds CPU = 0.013 seconds
  read_data CPU = 0.028 seconds

    set type 1 charge   ${bigc}    	#large NPs
    set type 1 charge   -80    	
Setting atom values ...
  256 settings made for charge
    set type 2 charge   ${smallc}       #small NPs
    set type 2 charge   10       
Setting atom values ...
  2048 settings made for charge
#    set type 3 charge   1       #Na+
#    set type 3 charge   -1      #Cl-

    mass    *   0.2
    mass    1   25.0

    group big       type 1
256 atoms in group big
    group small     type 2
2048 atoms in group small
#    group cation    type 3
#    group anion     type 3

## ----- Interaction setting ----- ##
    pair_style lj/cut/coul/long ${cut_big} ${cutoff_pppm} #lj/cut/coul/long/soft 2.0 0.5 5.0 ${cut_small} ${cutoff_pppm}
    pair_style lj/cut/coul/long 11.22462 ${cutoff_pppm} 
    pair_style lj/cut/coul/long 11.22462 28.3 
    #Between regular particles (4*5/2=10)
    pair_coeff  1   1   2.0     ${bigd}     ${cut_big}	        # big-big
    pair_coeff  1   1   2.0     10     ${cut_big}	        
    pair_coeff  1   1   2.0     10     11.22462	        
    pair_coeff  2   2   2.0     ${smalld}   ${cut_small}	    # small-small
    pair_coeff  2   2   2.0     2   ${cut_small}	    
    pair_coeff  2   2   2.0     2   2.244924	    
    pair_coeff  1   2   2.0     ${d_bs}     ${cut_bs}	        # big-small
    pair_coeff  1   2   2.0     6     ${cut_bs}	        
    pair_coeff  1   2   2.0     6     6.734772	        
    pair_modify shift yes
    kspace_style	pppm	5.0e-4

## ----- Simulation setup ----- ##
    neighbor 1.2 bin
    neigh_modify delay 0 every 1 check yes #one 2000

    compute temp all temp
    compute press all pressure temp

    thermo 5000
    thermo_style custom step pe temp c_press lx ly lz cpu
    thermo_modify norm no flush yes

   # dump moldump all custom 50000 ${xyzname} id type q x y z

## ----- Thermalization of system ----- ##
    timestep 0.0002

    fix 1 all nve/limit 0.05
    fix 2 big langevin ${ttemp} ${ttemp} 0.2 ${rseed1}
    fix 2 big langevin 1.6 ${ttemp} 0.2 ${rseed1}
    fix 2 big langevin 1.6 1.6 0.2 ${rseed1}
    fix 2 big langevin 1.6 1.6 0.2 19131
    fix 3 small langevin ${ttemp} ${ttemp} 0.008 ${rseed2}
    fix 3 small langevin 1.6 ${ttemp} 0.008 ${rseed2}
    fix 3 small langevin 1.6 1.6 0.008 ${rseed2}
    fix 3 small langevin 1.6 1.6 0.008 20067

    fix freeze big setforce 0.0 0.0 0.0
    fix zeromom all momentum 1 linear 1 1 1 angular
    run ${t_nve}
    run 50000

CITE-CITE-CITE-CITE-CITE-CITE-CITE-CITE-CITE-CITE-CITE-CITE-CITE

Your simulation uses code contributions which should be cited:

- GPU package (short-range, long-range and three-body potentials):

@Article{Brown11,
 author = {W. M. Brown, P. Wang, S. J. Plimpton, A. N. Tharrington},
 title = {Implementing Molecular Dynamics on Hybrid High Performance Computers - Short Range Forces},
 journal = {Comp.~Phys.~Comm.},
 year =    2011,
 volume =  182,
 pages =   {898--911}
}

@Article{Brown12,
 author = {W. M. Brown, A. Kohlmeyer, S. J. Plimpton, A. N. Tharrington},
 title = {Implementing Molecular Dynamics on Hybrid High Performance Computers - Particle-Particle Particle-Mesh},
 journal = {Comp.~Phys.~Comm.},
 year =    2012,
 volume =  183,
 pages =   {449--459}
}

@Article{Brown13,
 author = {W. M. Brown, Y. Masako},
 title = {Implementing Molecular Dynamics on Hybrid High Performance Computers – Three-Body Potentials},
 journal = {Comp.~Phys.~Comm.},
 year =    2013,
 volume =  184,
 pages =   {2785--2793}
}

@Article{Trung15,
 author = {T. D. Nguyen, S. J. Plimpton},
 title = {Accelerating dissipative particle dynamics simulations for soft matter systems},
 journal = {Comput.~Mater.~Sci.},
 year =    2015,
 volume =  100,
 pages =   {173--180}
}

@Article{Trung17,
 author = {T. D. Nguyen},
 title = {GPU-accelerated Tersoff potentials for massively parallel Molecular Dynamics simulations},
 journal = {Comp.~Phys.~Comm.},
 year =    2017,
 volume =  212,
 pages =   {113--122}
}

@Article{Nikolskiy19,
 author = {V. Nikolskiy, V. Stegailov},
 title = {GPU acceleration of four-site water models in LAMMPS},
 journal = {Proceeding of the International Conference on Parallel Computing (ParCo 2019), Prague, Czech Republic},
 year =    2019
}

CITE-CITE-CITE-CITE-CITE-CITE-CITE-CITE-CITE-CITE-CITE-CITE-CITE

PPPM initialization ...
  using 12-bit tables for long-range coulomb (src/kspace.cpp:340)
  G vector (1/distance) = 0.11279571
  grid = 60 60 60
  stencil order = 5
  estimated absolute RMS force accuracy = 0.0003775628
  estimated relative force accuracy = 0.0003775628
  using double precision KISS FFT
  3d grid and FFT values/proc = 42875 28800
  generated 0 of 1 mixed pair_coeff terms from geometric mixing rule
Neighbor list info ...
  update every 1 steps, delay 0 steps, check yes
  max neighbors/atom: 2000, page size: 100000
  master list distance cutoff = 29.5
  ghost atom cutoff = 29.5
  binsize = 14.75, bins = 11 11 11
  1 neighbor lists, perpetual/occasional/extra = 1 0 0
  (1) pair lj/cut/coul/long/gpu, perpetual
      attributes: full, newton off
      pair build: full/bin
      stencil: full/bin/3d
      bin: standard
Per MPI rank memory allocation (min/avg/max) = 11.95 | 12.05 | 12.16 Mbytes
Step PotEng Temp c_press Lx Ly Lz CPU 
       0 1.7992005e+08            0    175.78446          160          160          160            0 
    5000    -68410.85    1.4247864 -0.0043319253          160          160          160    29.980937 
   10000   -73967.962    1.4334076 -0.0044214267          160          160          160    59.966644 
   15000   -78496.449    1.4070275 -0.0044464623          160          160          160    89.928219 
   20000   -82638.599    1.4375361 -0.0044714138          160          160          160    119.85998 
   25000   -86400.523    1.4549853 -0.0045077325          160          160          160    149.71885 
   30000   -89704.741    1.4552639 -0.0044247972          160          160          160    179.63859 
   35000   -92813.173    1.4214231 -0.0044941039          160          160          160    209.60415 
   40000   -95908.291    1.3897848 -0.004510531          160          160          160    239.53434 
   45000   -98705.211    1.3978671 -0.0044295834          160          160          160    269.41905 
   50000   -101531.57    1.3734789 -0.0043699243          160          160          160      299.299 
Loop time of 299.299 on 8 procs for 50000 steps with 2304 atoms

Performance: 2886.744 tau/day, 167.057 timesteps/s
99.5% CPU use with 8 MPI tasks x 1 OpenMP threads

MPI task timing breakdown:
Section |  min time  |  avg time  |  max time  |%varavg| %total
---------------------------------------------------------------
Pair    | 8.4383     | 8.532      | 8.6199     |   2.1 |  2.85
Bond    | 0.003389   | 0.0049583  | 0.0072141  |   1.9 |  0.00
Kspace  | 285.38     | 285.91     | 286.15     |   1.4 | 95.53
Neigh   | 0.052419   | 0.058869   | 0.065478   |   1.8 |  0.02
Comm    | 1.999      | 2.1828     | 2.7778     |  18.2 |  0.73
Output  | 0.00031664 | 0.0011061  | 0.0066222  |   6.3 |  0.00
Modify  | 2.1936     | 2.2285     | 2.259      |   1.3 |  0.74
Other   |            | 0.38       |            |       |  0.13

Nlocal:        288.000 ave         316 max         261 min
Histogram: 2 0 0 1 0 3 0 0 1 1
Nghost:        1362.88 ave        1394 max        1328 min
Histogram: 1 0 1 0 1 2 1 1 0 1
Neighs:         0.00000 ave           0 max           0 min
Histogram: 8 0 0 0 0 0 0 0 0 0
FullNghs:      17403.5 ave       19925 max       14922 min
Histogram: 2 0 0 1 0 3 0 0 0 2

Total # of neighbors = 139228
Ave neighs/atom = 60.428819
Ave special neighs/atom = 0.0000000
Neighbor list builds = 69
Dangerous builds = 0

    fix deforming all deform 10 x final -33 33 y final -33 33 z final -33 33 remap x
    run ${t_deform}
    run 50000
PPPM initialization ...
  using 12-bit tables for long-range coulomb (src/kspace.cpp:340)
  G vector (1/distance) = 0.11279571
  grid = 60 60 60
  stencil order = 5
  estimated absolute RMS force accuracy = 0.0003775628
  estimated relative force accuracy = 0.0003775628
  using double precision KISS FFT
  3d grid and FFT values/proc = 42875 28800
  generated 0 of 1 mixed pair_coeff terms from geometric mixing rule
Per MPI rank memory allocation (min/avg/max) = 11.95 | 12.05 | 12.16 Mbytes
Step PotEng Temp c_press Lx Ly Lz CPU 
   50000   -101531.57    1.3734789 -0.0043699243          160          160          160            0 
   55000   -107948.15    1.4528576 -0.0036042661        150.6        150.6        150.6    32.474529 
   60000   -114750.78    1.3716519 -0.0042758524        141.2        141.2        141.2    64.937281 
   65000   -122202.65    1.4326929 -0.0042230126        131.8        131.8        131.8    97.396062 
   70000   -129835.44    1.4221197 -0.0035596736        122.4        122.4        122.4    129.82138 
   75000   -138023.13    1.4210371 -0.0020485198          113          113          113    162.21437 
   80000   -146703.94    1.4418164  0.001462878        103.6        103.6        103.6    194.65666 
   85000   -155465.77    1.4222639  0.010743653         94.2         94.2         94.2    227.15981 
   90000   -163833.27    1.4358289  0.032419726         84.8         84.8         84.8    259.76617 
   95000   -172161.81    1.4211565  0.074977158         75.4         75.4         75.4    292.51248 
  100000   -182293.22    1.4655469   0.16864317           66           66           66    325.50552 
Loop time of 325.506 on 8 procs for 50000 steps with 2304 atoms

Performance: 2654.332 tau/day, 153.607 timesteps/s
99.5% CPU use with 8 MPI tasks x 1 OpenMP threads

MPI task timing breakdown:
Section |  min time  |  avg time  |  max time  |%varavg| %total
---------------------------------------------------------------
Pair    | 9.1136     | 9.2017     | 9.3047     |   1.7 |  2.83
Bond    | 0.0041092  | 0.0058028  | 0.0071768  |   1.5 |  0.00
Kspace  | 285.51     | 285.87     | 286.19     |   1.3 | 87.82
Neigh   | 0.67582    | 0.73771    | 0.80393    |   5.0 |  0.23
Comm    | 2.9965     | 3.3043     | 3.7571     |  13.0 |  1.02
Output  | 0.00038551 | 0.0043183  | 0.01001    |   5.2 |  0.00
Modify  | 21.606     | 23.969     | 25.902     |  33.3 |  7.36
Other   |            | 2.417      |            |       |  0.74

Nlocal:        288.000 ave         312 max         269 min
Histogram: 2 0 0 2 0 2 1 0 0 1
Nghost:        6116.00 ave        6155 max        6052 min
Histogram: 1 0 0 0 2 0 2 0 2 1
Neighs:         0.00000 ave           0 max           0 min
Histogram: 8 0 0 0 0 0 0 0 0 0
FullNghs:      244484.0 ave      267241 max      227490 min
Histogram: 2 0 1 1 1 1 1 0 0 1

Total # of neighbors = 1955872
Ave neighs/atom = 848.90278
Ave special neighs/atom = 0.0000000
Neighbor list builds = 328
Dangerous builds = 0

    unfix 1
#    unfix 2
    unfix freeze
    unfix deforming

    timestep 0.002

    fix 1 all   nph	            tri ${ipress} ${ipress} 1.0
    fix 1 all   nph	            tri 0.1 ${ipress} 1.0
    fix 1 all   nph	            tri 0.1 0.1 1.0
    run ${t_pressed}
    run 50000
PPPM initialization ...
  using 12-bit tables for long-range coulomb (src/kspace.cpp:340)
  G vector (1/distance) = 0.11896362
  grid = 32 32 32
  stencil order = 5
  estimated absolute RMS force accuracy = 0.00045532445
  estimated relative force accuracy = 0.00045532445
  using double precision KISS FFT
  3d grid and FFT values/proc = 9261 4096
  generated 0 of 1 mixed pair_coeff terms from geometric mixing rule
Per MPI rank memory allocation (min/avg/max) = 9.316 | 9.336 | 9.386 Mbytes
Step PotEng Temp c_press Lx Ly Lz CPU 
  100000   -182254.34    1.4655469   0.17026561           66           66           66            0 
  105000   -200444.89    1.6239924  0.098240075    61.951321    61.929963     61.37542    18.771085 
  110000   -202605.94    1.6071134   0.09870747     60.91223    60.203356    61.021979      37.7158 
  115000   -203857.56    1.5649109  0.098559516    60.185568    60.128166    60.300794    56.834281 
  120000   -204625.19    1.6263869  0.098539241    60.126606    59.934493    59.967215    75.932094 
  125000   -205094.93    1.5955259   0.10843763    59.594036    59.993679    60.043204    95.113443 
  130000    -205261.9    1.5626898  0.098533154    60.030242    59.795338    60.048641    114.30487 
  135000   -205322.28    1.6156622   0.11081859    59.749248    59.729739    59.959766    133.65807 
  140000   -205517.34    1.6292743  0.097572927    59.938201    59.948357    59.910172    152.72751 
  145000   -205662.88    1.5816589   0.10516156     59.93571    59.560021    60.019003     171.9437 
  150000   -205692.86    1.5750333   0.10002377    59.946704    59.647038    60.105778    191.05654 
Loop time of 191.057 on 8 procs for 50000 steps with 2304 atoms

Performance: 45222.188 tau/day, 261.702 timesteps/s
92.7% CPU use with 8 MPI tasks x 1 OpenMP threads

MPI task timing breakdown:
Section |  min time  |  avg time  |  max time  |%varavg| %total
---------------------------------------------------------------
Pair    | 71.734     | 74.53      | 77.473     |  27.2 | 39.01
Bond    | 0.0038758  | 0.004599   | 0.0056648  |   0.8 |  0.00
Kspace  | 50.642     | 50.825     | 51.01      |   1.8 | 26.60
Neigh   | 11.109     | 11.256     | 11.483     |   3.4 |  5.89
Comm    | 4.7127     | 4.7815     | 4.8929     |   2.6 |  2.50
Output  | 0.00028228 | 0.00042796 | 0.0014227  |   0.0 |  0.00
Modify  | 45.156     | 48.429     | 51.824     |  39.1 | 25.35
Other   |            | 1.23       |            |       |  0.64

Nlocal:        288.000 ave         293 max         284 min
Histogram: 2 0 2 0 0 0 2 1 0 1
Nghost:        7286.75 ave        7301 max        7273 min
Histogram: 1 1 1 0 1 0 2 0 1 1
Neighs:         0.00000 ave           0 max           0 min
Histogram: 8 0 0 0 0 0 0 0 0 0
FullNghs:      332490.0 ave      338828 max      327066 min
Histogram: 2 0 2 0 0 0 1 1 1 1

Total # of neighbors = 2659920
Ave neighs/atom = 1154.4792
Ave special neighs/atom = 0.0000000
Neighbor list builds = 1410
Dangerous builds = 0
    unfix 1
    fix 1 all   nph	            tri ${ipress} ${ppress} 1.0
    fix 1 all   nph	            tri 0.1 ${ppress} 1.0
    fix 1 all   nph	            tri 0.1 0 1.0
    run ${t_relaxed}
    run 100000
PPPM initialization ...
  using 12-bit tables for long-range coulomb (src/kspace.cpp:340)
  G vector (1/distance) = 0.11970557
  grid = 30 30 30
  stencil order = 5
  estimated absolute RMS force accuracy = 0.00045720554
  estimated relative force accuracy = 0.00045720554
  using double precision KISS FFT
  3d grid and FFT values/proc = 8000 3600
  generated 0 of 1 mixed pair_coeff terms from geometric mixing rule
Per MPI rank memory allocation (min/avg/max) = 9.738 | 9.768 | 9.786 Mbytes
Step PotEng Temp c_press Lx Ly Lz CPU 
  150000    -205692.9    1.5750333   0.10002259    59.946704    59.647038    60.105778            0 
  155000    -205856.9    1.6452762  0.094413924    59.770889    60.007221     60.05591    18.727146 
  160000   -205925.94    1.5834626  0.085972837     60.12927    60.017339    60.011247    37.392026 
  165000   -205922.25    1.6299713    0.0826401    60.105883    60.235219     59.97442    56.065904 
  170000   -205730.05    1.6032908  0.078056579    60.245389    60.032726    60.237541    74.741969 
  175000   -205613.69     1.595359  0.081178487     60.23993    60.235149    60.050273    93.350912 
  180000   -205953.84    1.6104717  0.080157512    60.129815    60.304297     59.95123    112.07931 
  185000   -205809.87    1.6064509  0.062139889    60.202118    60.185099    60.679062    130.68316 
  190000   -206079.86     1.598677   0.05476437    60.261336    60.433237    60.519716    149.32719 
  195000   -205833.64    1.6226746  0.055847541    60.458275     60.50444    60.401359    167.92924 
  200000   -205935.92    1.6057142  0.052549892    60.365883    60.482584    60.604407    186.61903 
  205000    -205946.2    1.6046188   0.04686404    60.370608    60.567031    60.666732     205.3185 
  210000   -205775.64    1.6351591  0.048511624    60.710005    60.690746    60.285317    224.03209 
  215000   -205803.43    1.6517193   0.03298054    60.683575    60.711915    60.836928    242.67623 
  220000   -205817.65    1.5670208  0.025764798     60.84905    60.765925    60.830453    261.23491 
  225000      -205684     1.616789  0.025184402    60.737623    61.169549    60.792723    279.84283 
  230000   -205640.57    1.6381122    0.0245052    60.850602    60.920966     60.97244    298.53792 
  235000   -205307.13    1.5837463 0.0069759491     61.36325    61.141531    61.208036    317.16609 
  240000   -205255.88    1.5961001  0.012568107    61.030978    61.294835    61.276859    335.73029 
  245000   -205289.75    1.6026504 -0.0014129715    61.280124    61.363484    61.373447    354.28651 
  250000   -205269.62    1.5985607 -0.0036913863     61.10325    61.145524    62.137666    372.87825 
Loop time of 372.878 on 8 procs for 100000 steps with 2304 atoms

Performance: 46342.186 tau/day, 268.184 timesteps/s
91.6% CPU use with 8 MPI tasks x 1 OpenMP threads

MPI task timing breakdown:
Section |  min time  |  avg time  |  max time  |%varavg| %total
---------------------------------------------------------------
Pair    | 162.36     | 166.89     | 172.48     |  27.4 | 44.76
Bond    | 0.0078507  | 0.0091608  | 0.010994   |   1.0 |  0.00
Kspace  | 84.278     | 84.488     | 84.901     |   2.1 | 22.66
Neigh   | 22.348     | 22.526     | 22.602     |   1.8 |  6.04
Comm    | 9.3895     | 9.5728     | 9.8189     |   4.1 |  2.57
Output  | 0.00055805 | 0.00082367 | 0.0026379  |   0.0 |  0.00
Modify  | 69.003     | 83.857     | 92.207     |  87.4 | 22.49
Other   |            | 5.532      |            |       |  1.48

Nlocal:        288.000 ave         292 max         285 min
Histogram: 1 2 1 0 1 0 0 2 0 1
Nghost:        7218.12 ave        7229 max        7207 min
Histogram: 1 0 0 2 0 3 1 0 0 1
Neighs:         0.00000 ave           0 max           0 min
Histogram: 8 0 0 0 0 0 0 0 0 0
FullNghs:      308479.0 ave      312772 max      305024 min
Histogram: 1 2 0 1 1 0 0 2 0 1

Total # of neighbors = 2467834
Ave neighs/atom = 1071.1085
Ave special neighs/atom = 0.0000000
Neighbor list builds = 2819
Dangerous builds = 0
    unfix 1

    timestep 0.001
    dump moldump all custom 10000 ${xyzname} id type q x y z vx vy vz
    dump moldump all custom 10000 r8T1.6_coulombic_.04.lammpstrj id type q x y z vx vy vz
    fix 1 all   nph                 tri ${ppress} ${ppress} 1.0
    fix 1 all   nph                 tri 0 ${ppress} 1.0
    fix 1 all   nph                 tri 0 0 1.0
    run ${t_eq}
    run 5000000
PPPM initialization ...
  using 12-bit tables for long-range coulomb (src/kspace.cpp:340)
  G vector (1/distance) = 0.11907674
  grid = 30 30 30
  stencil order = 5
  estimated absolute RMS force accuracy = 0.00049619822
  estimated relative force accuracy = 0.00049619822
  using double precision KISS FFT
  3d grid and FFT values/proc = 8000 3600
  generated 0 of 1 mixed pair_coeff terms from geometric mixing rule
Per MPI rank memory allocation (min/avg/max) = 11.01 | 11.04 | 11.06 Mbytes
Step PotEng Temp c_press Lx Ly Lz CPU 
  250000   -205269.73    1.5985607 -0.0036951537     61.10325    61.145524    62.137666            0 
  255000   -205247.74    1.6035655 -0.007052058    61.577066    61.261064    61.577077    17.767723 
  260000   -205089.48    1.5700314 -0.00091345295    61.421341    61.630275    61.243145    35.563946 
  265000   -204972.51    1.6194072 -0.0051883016    61.409539    61.699623    61.523865    53.443139 
  270000   -205051.72    1.6284707 -0.0032252502    61.483385    61.549938    61.654025    71.317836 
  275000   -204910.14     1.588327 -0.0039427516    61.447464    61.532864    61.603803    89.192066 
  280000   -205012.71    1.5837491 0.0047527596    61.468194    61.393325      61.4503    107.00597 
  285000    -204735.9    1.5725104 0.00086633101    61.723881    61.342528     61.49057     124.8637 
  290000   -205078.61    1.5607627 0.0012803509    61.493056      61.3785    61.373439    142.70854 
  295000   -204816.83    1.6208459 -0.0029836677    61.134281    61.366363    62.022155    160.59176 
  300000   -204874.13    1.6014862 0.0064644714    61.624802    61.422289    61.192062    178.39652 
  305000   -205069.78    1.5802095 0.0026635093    61.117731    61.500972     61.62878    196.21586 
  310000   -205086.69    1.5719087 0.0002712633    61.538962    61.542986    61.206802     213.9841 
  315000   -204998.47    1.5510948 0.0043990653    61.528039    61.341538    61.376684    231.80381 
  320000   -205173.82    1.5936587 -0.0006929634    61.679048    61.354201    61.304602    249.64314 
  325000   -205029.37    1.5511352 -0.0053746722    61.484191    61.584701    61.555399    267.49088 
  330000   -204830.27    1.6154857 0.00072910365    61.408471    61.559152    61.646297    285.30845 
  335000   -204886.94    1.5882774 -0.0011868134    61.516871    61.470705    61.646122    303.15446 
  340000   -205088.22     1.657702 -0.0029961112    61.661325    61.485874     61.39749    321.07428 
  345000   -204891.21     1.623304 0.00086526075    61.434812    61.616311    61.447833    338.93299 
  350000   -204796.44    1.6294008 -0.0058895199      61.5833    61.607851    61.675728     356.8223 
  355000   -204885.31    1.6368211 -0.0015815261    61.674521    61.349359    61.622417    374.71542 
  360000   -205016.04      1.62301 -0.0050055271    61.512794    61.600174    61.583276    392.60731 
  365000   -205085.47    1.5187847 0.0015928826     61.44836     61.09216    61.747336    410.49078 
  370000   -204989.03    1.6389197 0.0043896839     61.51459     61.44382    61.409216    428.33986 
  375000   -204773.96    1.5753015 -0.0019842597    61.455932    61.754153    61.401149    446.23108 
  380000   -204835.49    1.5814108 0.0032844901    61.484711    61.352306    61.452826    464.09856 
  385000   -204670.59    1.6306913 0.0011856015    61.054579    61.570229    61.979832    481.88447 
  390000    -204797.6    1.5748505 0.0012404609    61.478366    61.769556    61.452594    499.69127 
  395000   -204639.38     1.620851 -0.0056535987     61.63337    61.711797     61.68849    517.49984 
  400000   -204876.23    1.5636401 0.0014754098     61.81781    61.526362    61.234916    535.39807 
  405000    -204843.8    1.5986206 -0.0068108459    61.322546    61.741961    61.767738    553.25668 
  410000   -204620.95    1.5863717 0.0041540805     61.72505    61.361488    61.438353    571.15109 
  415000   -204713.92    1.5669325 -0.0066913831    61.673116    61.548017    61.687717     588.9355 
  420000   -204925.66    1.5874676 0.0054292238    61.550497    61.346471    61.513881    606.86189 
  425000   -204776.32    1.6157462 0.0031120536    61.551922    61.332619    61.581768    624.72007 
  430000   -204793.15     1.602707 -0.0009254283    61.288894    61.758773    61.719446    642.60802 
  435000   -204817.84     1.618391 0.00092755767    61.379579    61.768272    61.523957    660.45587 
  440000   -204711.02    1.5738764 -0.0042615229    61.482974    61.887911    61.466264    678.29428 
  445000   -204686.87    1.6041007 -0.00068490748    61.466666    61.875941    61.515687    696.18085 
  450000   -204827.58    1.6096225 -0.00075977825    61.727076    61.531126    61.361539    713.99275 
  455000    -205061.1    1.5975682 0.0069469171    61.537177    61.345287    61.245587    731.89089 
  460000    -204937.7    1.5727248 -0.0012163523    61.427216    61.137165    61.815575    749.79716 
  465000   -204997.61    1.5741254 -0.0020163575    61.530435    61.436275    61.426759    767.74012 
  470000   -205035.37    1.5935951 0.00033256155    61.366139    61.576968    61.515338    785.69359 
  475000   -205015.95    1.5817013 0.0046075757    61.329145    61.381051    61.686066    803.68732 
  480000   -204852.19    1.5972215 0.0038299282    61.706821    61.370947    61.430721      821.591 
  485000   -204765.42    1.5573073 0.0048454553    61.385459    61.468919    61.537404    839.50391 
  490000   -204905.73    1.6061419 -0.00046250942    61.428491    61.546452    61.602488     857.3143 
  495000   -204923.17    1.6193511 0.0071408594    61.636601    61.447616    61.239656    875.21393 
  500000   -204950.97    1.6395048 0.00058356065    61.632666    61.434725    61.448615    893.03619 
  505000   -204919.84    1.6011689 0.0060758207    61.460408    61.378727    61.475071     910.8632 
  510000   -204866.25    1.6341048 0.0013545544    61.429326     61.40723    61.891388    928.67092 
  515000   -204910.45    1.5744654 -0.0013888002    61.586045    61.536947    61.459724    946.57344 
  520000   -204853.68    1.5958726 0.0033568334    61.331639    61.544351    61.661802    964.42882 
  525000   -204793.91    1.6161144 0.00089351648    61.526754    61.568922    61.518239    982.25208 
  530000   -205060.61    1.5909121 0.00070319973    61.516455    61.196249    61.806582    1000.0984 
  535000   -204973.32    1.6208212  0.005297786    61.327539    61.440715    61.524563    1017.9893 
  540000   -204893.02    1.6143205 -0.0021178475     61.62846    61.538161    61.557489     1035.908 
  545000   -205065.49    1.6137086 0.0010548356    61.648269    61.441252    61.350117    1053.7594 
  550000   -204987.09    1.6017089 -0.0048128189    61.415052    61.634933    61.638797    1071.5834 
  555000   -204627.21    1.5901365 0.0057927413    61.606937    61.542456    61.482741    1089.4883 
  560000   -205078.77    1.5778984 0.0032766443    61.530411    61.519014    61.315259    1107.2669 
  565000   -204872.19    1.5697678 -0.0034431184    61.673316    61.509797    61.470797    1125.0765 
  570000   -204907.12     1.594233 -0.0056153746     61.82136    61.682377    61.350167    1142.9679 
  575000   -204839.86    1.5775252 0.0051816051    61.536264    61.647595    61.263261    1160.8051 
  580000   -204870.12    1.6024249 -0.0012904319    61.478526    61.567839     61.52663    1178.5815 
  585000   -204989.94    1.6206757 0.0068730851     61.38024    61.211442    61.689988    1196.3917 
  590000   -205035.99    1.6230006 0.0020054744    61.412494    61.495731    61.442921    1214.2842 
  595000   -204979.71    1.5853868 0.0014376881    61.512141    61.274968    61.661775    1232.1153 
  600000   -204886.29    1.6745245 0.0022411168    61.737606    61.448438    61.365447     1249.972 
  605000   -205202.57    1.6132323 0.0058038609    61.340328    61.298383    61.404706    1267.8523 
  610000   -204896.44    1.6308455 0.0018055861     61.52205    61.482429    61.534805    1285.6816 
  615000   -205048.28    1.5927689 0.0081706518    61.485007    61.464784    61.223976    1303.4729 
  620000   -205048.23    1.6262482 -0.001770967    61.686948     61.36972    61.397412    1321.2937 
  625000   -205089.73    1.5762794 -0.0010037493    61.478667    61.598995     61.35093    1339.1287 
  630000   -205210.98    1.6306546 -0.0047664289     61.48318    61.285646    61.706744    1356.9722 
  635000   -204913.76    1.5823168 0.00050172046    61.484381    61.325924    61.700424    1374.8407 
  640000   -205048.14    1.6099371 0.0070891782    61.365203    61.413645    61.485551    1392.7115 
  645000   -205015.17    1.5747407 0.0049777485    61.340734    61.541653    61.447736    1410.5833 
  650000   -205007.18    1.6433301 0.0027715104     61.43986    61.324879    61.750501    1428.4316 
  655000    -205069.1    1.6423049 -0.0033675469    61.545242    61.311477    61.711835    1446.2817 
  660000    -205219.2    1.5840563 -0.0017215173    61.283133    61.580432    61.372208    1464.1375 
  665000   -205021.88    1.5710112 -0.0022991385    61.512478    61.499669    61.282205    1481.9957 
  670000   -205000.87    1.6277219 -0.00096750239    61.399081    61.497901     61.61869    1499.8763 
  675000   -205094.86    1.5992784 -0.0040301916     61.45755    61.561764    61.400664    1517.7076 
  680000    -204861.7    1.5573778 -0.0040898259    61.638631     61.40608    61.645736    1535.4889 
  685000   -204574.95    1.5802792 0.0038501624    61.510601    61.611892    61.457289    1553.2787 
  690000   -204916.06     1.607748 0.00068591195    61.433585    61.546136     61.39619    1571.1112 
  695000   -205025.64    1.5901109 0.0034318271    61.580459    61.425074     61.23412    1588.8898 
  700000   -204856.84    1.6253431 0.0013299986    61.652123    61.376438    61.254785    1606.6732 
  705000   -204710.32    1.5656817 0.0080223998    61.567733     61.46706    61.274176    1624.5074 
  710000   -204937.44    1.6153371 -0.0051420176    61.315523    61.530074    61.706121    1642.4014 
  715000   -205026.79    1.6012042 -8.1572995e-05    61.323734    61.298643    61.769006    1660.3031 
  720000   -205202.27    1.6249329 0.0068190495    61.180303    61.417063    61.436531    1678.1598 
  725000   -205149.48    1.6384541 0.0031523041    61.475616    61.346956    61.227794    1695.9767 
  730000   -204978.84     1.570695 0.0036871832    61.521347     61.28846     61.49362    1713.8957 
  735000   -205193.36    1.5757848 0.0010721946    61.381213    61.446958     61.23778    1731.7966 
  740000   -204969.27    1.5929385 0.0078490123    61.506517    61.232541    61.352465    1749.6186 
  745000   -204846.73    1.6461681 0.0027147731    61.491802    61.583898    61.428708    1767.4483 
  750000   -204967.19    1.6005841 -0.0012631246    61.682476    61.308791    61.394321    1785.3475 
  755000   -205205.32    1.6106249 0.0018224892    61.318286    61.518807    61.489836    1803.2315 
  760000   -205094.29    1.5851046 0.0010021739    61.684357     61.48816    61.285507    1821.1908 
  765000   -204858.36    1.6261822 -0.004846983    61.800661    61.528944    61.466544    1839.0345 
  770000    -204923.1      1.56471 -0.0043286724    61.532153    61.830055    61.338752    1856.8522 
  775000   -204774.42    1.5775614 -0.0041620584    61.620719    61.678061    61.607865    1874.6402 
  780000   -204971.64    1.6105728 0.0010940783    61.695028    61.405033    61.335117    1892.4698 
  785000    -204951.1    1.5863144 5.8788297e-05    61.550036    61.471273     61.40834    1910.3036 
  790000   -204884.73     1.633944 0.0044555295    61.652173    61.242773     61.50993    1928.1765 
  795000   -205178.79    1.5963618  0.003413679    61.303036     61.53187    61.446011    1946.0356 
  800000   -205056.15    1.6056353 0.0039207316    61.289089    61.131884    61.775666    1963.9544 
  805000   -204901.75    1.6377729 -0.0021450925    61.786903    61.277267    61.510024     1981.778 
  810000   -204936.95    1.5619002 -0.0069096399    61.712192    61.636583    61.409204    1999.6108 
  815000   -204946.08    1.5901876 -0.002288906    61.621144    61.485819    61.533745    2017.4249 
  820000   -205180.23    1.6271321 -6.1030577e-05    61.499978    61.490275    61.293254    2035.3439 
  825000   -205152.03    1.5778724 -0.0046601441    61.587192    61.372148    61.445326    2053.2969 
  830000    -204957.6    1.6037463 -0.0045700998     61.49679    61.244857    61.835655     2071.131 
  835000   -205184.03    1.5752624 -0.0063853287     61.23647    61.605543    61.589026    2088.9765 
  840000   -205120.37      1.57978 -0.0040044149    61.386323    61.525902    61.287503    2106.7658 
  845000   -205208.45    1.6299006 -0.0027182996    61.379045    61.465272    61.446043    2124.7046 
  850000   -205156.24    1.5707285 0.0018889908    61.259437    61.546988    61.347289    2142.5692 
  855000   -205045.89    1.5638847 0.00088415655    61.531119    61.566198    61.229598    2160.5023 
  860000   -205080.78     1.621111 0.0022381355    61.399409    61.324809    61.381376    2178.3761 
  865000   -205137.17    1.6070148 0.00054434863    61.531929    61.329724    61.439572    2196.2231 
  870000   -205205.72    1.6374242 -0.0028348069      61.2946    61.448038    61.633472    2214.1239 
  875000   -204941.38    1.6034081 -0.0016555515    61.142035    61.581507    61.619316    2232.0622 
  880000   -205007.64    1.5789344 0.0023626781    61.536721    61.579626    61.290402    2249.9522 
  885000   -205106.58    1.5742913 0.0001875463    61.316016    61.348859    61.608408     2267.794 
  890000   -205145.59    1.6105503 -0.002005012    61.553052    61.362075    61.285425    2285.6858 
  895000   -205033.67    1.6195077 -0.0070891259    61.503818    61.658074    61.516011    2303.5207 
  900000   -205150.74    1.6360816 0.0060535201    61.257841    61.492134    61.238442    2321.2756 
  905000      -205108    1.6355131  0.001571055    61.290502    61.523339    61.495584     2339.117 
  910000   -205085.67    1.5859945 -0.0010405801    61.326825    61.727386    61.264553    2356.9416 
  915000   -205085.64    1.5690417 -0.0039668454    61.838423    61.418047    61.365779     2374.753 
  920000   -205117.51    1.5988797 -0.00077073041    61.405312     61.75811    61.340173    2392.6809 
  925000   -205095.65    1.6147203 -0.0057127563    61.433884    61.579778    61.629251    2410.4786 
  930000   -204943.93     1.650542 0.0010709071    61.378976    61.614362    61.629356    2428.3533 
  935000   -204932.38    1.6420802 -0.0021121736    61.412658    61.521243    61.709453    2446.2995 
  940000   -205004.55    1.5929306 -0.0039631172    61.434056    61.544207    61.510672    2464.2325 
  945000   -205029.89      1.60493 0.0022307113    61.546203    61.218936    61.639523    2482.1231 
  950000   -205059.01    1.6609382 0.00032907001    61.361513    61.552884    61.500544    2499.9172 
  955000   -204963.33    1.6119811 0.0045615673    61.449727    61.526972    61.480473    2517.7955 
  960000   -205061.13    1.6116313 -0.0035200308    61.340476    61.615775    61.521756    2535.6232 
  965000   -204956.13    1.5906178 0.0023967196      61.5934    61.365687    61.513531    2553.4915 
  970000   -205175.65    1.5562813 -0.0019370997    61.506959    61.441171    61.373944    2571.3571 
  975000   -205197.23    1.6404803 -0.006225383    61.443661    61.843044    61.271682    2589.1563 
  980000   -205049.11    1.5777373 -0.001689052    61.701792    61.250413    61.607389     2606.999 
  985000   -205050.06    1.6342896 -0.0047605131    61.599815    61.079602    61.710179    2624.8684 
  990000   -204973.98    1.5603249 0.0015876292    61.486862    61.402341    61.484797    2642.7762 
  995000   -205178.94    1.5737187 0.0028743289    61.556489    61.270123    61.415994    2660.6584 
 1000000   -205064.49    1.5806893 0.0072032665    61.338684    61.481843    61.282472    2678.5073 
 1005000   -204915.72    1.5950457 0.00082335339    61.711729    61.551453    61.289173    2696.3167 
 1010000   -205104.42    1.5762216 -0.0060271335    61.576794    61.352928    61.566093    2714.1569 
 1015000   -204935.27    1.5826735 0.00096169794    61.384303    61.586673    61.531416    2732.0544 
 1020000   -205041.45    1.5878237 0.00085198074    61.561629    61.565346     61.26879    2749.7949 
 1025000   -205015.37    1.6386856 -0.0019224447    61.544133    61.562959     61.43862    2767.6672 
 1030000   -205041.57    1.5730788  0.001374605    61.521583    61.323295    61.478283    2785.5533 
 1035000   -205033.29    1.5948127 -0.0051824495    61.652356    61.499974    61.374674    2803.4502 
 1040000    -204883.1    1.5736975 -0.0046046682     61.41992    61.510616    61.597464    2821.3197 
 1045000   -204936.57    1.6038433 -0.00058608181    61.435887    61.564548    61.483727    2839.1701 
 1050000   -205001.64    1.6035894 0.0044596451    61.167979    61.498609    61.650495    2857.0318 
 1055000   -205257.13    1.5945487 0.0004096764    61.417191    61.392607    61.395214    2874.8955 
 1060000   -205271.31    1.6265312 -0.0066723704      61.4916    61.329727    61.589675    2892.7445 
 1065000   -205127.52     1.626774 8.8863095e-05    61.562153    61.371584    61.307634    2910.6713 
 1070000   -204912.73    1.5885716 0.0024410162     61.62869    61.114717     61.60284    2928.5517 
 1075000   -205010.71    1.5978286 -0.00024405847    61.539039    61.372942    61.379905    2946.4261 
 1080000   -205040.62    1.5840902 -6.9157307e-05    61.459371    61.440133    61.338887    2964.3971 
 1085000   -204750.94    1.6117108 -0.0043336032    61.543097    61.570371     61.74907    2982.2993 
 1090000   -204939.72    1.5901298 0.0067291936    61.493735    61.168308    61.507747    3000.1551 
 1095000   -204906.45    1.6269646 0.0028344956    61.339388    61.548017    61.430903    3017.9923 
 1100000   -204826.93    1.6423675 0.0018977107    61.770684    61.604312    61.189511    3035.8666 
 1105000   -204830.93    1.6153079 0.00033625263    61.626764    61.835919     61.33968    3053.7112 
 1110000   -204849.37     1.587716 -0.0007723727     61.67156    61.592255    61.350935    3071.5482 
 1115000    -204785.6    1.5883245 -0.0014478749    61.760314    61.424704    61.595503    3089.4139 
 1120000   -204902.72    1.6351677 -0.0051628897    61.580059    61.247321    61.833414    3107.2964 
 1125000   -204952.96    1.5893739 0.0079043215    61.281938    61.496874    61.315226    3125.1438 
 1130000   -204968.42    1.5523528 -0.003332629    61.435111      61.5865    61.488154    3143.0013 
 1135000   -205035.82    1.5733623 -0.0015864658    61.445055    61.421436    61.583351    3160.8789 
 1140000   -204972.48    1.5741109 -0.001331729    61.589851    61.237635    61.657744    3178.7078 
 1145000   -205135.78    1.5941799 0.0032662984    61.453611    61.467015    61.396033    3196.5743 
 1150000   -205079.12    1.6074104 -0.00098583483    61.371625    61.516808    61.522272    3214.3817 
 1155000   -205075.77    1.5752417 -0.0064650045     61.65987    61.499489    61.413762    3232.2454 
 1160000   -204952.63    1.5700482 0.00059853585    61.413982    61.501003     61.56181    3250.1047 
 1165000   -205106.22    1.5741929 0.0012494551    61.503216    61.549453    61.241396    3267.9747 
 1170000   -205034.22    1.6048136 -0.0028167846    61.593754    61.444782    61.474129    3285.8883 
 1175000   -205015.56    1.6049507 -0.0044500392    61.622179    61.638943    61.473338    3303.8298 
 1180000   -205029.58    1.5870063 0.0007577111    61.399018    61.422628    61.663667    3322.6288 
 1185000   -204824.76     1.627055 -0.0044363008    61.679912    61.406854    61.744278    3342.1646 
 1190000   -205175.31    1.5972694 -0.0046574459    61.443146    61.492875    61.619224    3361.7235 
 1195000   -205021.77    1.5452089 0.0003523445    61.533606    61.281651    61.606147    3381.2432 
 1200000   -205013.84    1.5493284 0.0058889079     61.45974    61.431656    61.293398    3400.8898 
 1205000   -204904.07    1.5989777  0.003166503    61.630418    61.567811    61.334907    3420.4314 
 1210000   -204865.38    1.6333775 0.0025936084    61.155381    61.569388    61.808065    3440.0652 
 1215000   -204930.28    1.5890072 -0.0012669347    61.303262    61.805832    61.449804    3459.6703 
 1220000   -204890.99    1.6315112 0.00083560575    61.392294    61.491058    61.477019     3479.256 
 1225000   -204912.16    1.5719927 -0.0018493184    61.638058    61.427116    61.434093    3498.9184 
 1230000   -204853.88    1.5537615 0.0062199535    61.530715    61.446169    61.259327    3518.5355 
 1235000   -204856.59    1.5935441 -0.0046560329    61.789989    61.642334    61.414266    3536.5302 
 1240000   -204789.79     1.589476 0.0031642125     61.41955    61.579283    61.554368    3555.9503 
 1245000   -204745.83    1.5536007 -0.0016776967    61.303771    61.679434    61.798335    3575.6658 
 1250000   -204720.03    1.6401617  0.004818943    61.461601    61.716594    61.347087    3595.3309 
 1255000   -204748.74    1.6007565 -0.00018736099    61.427132    61.643366    61.478255     3614.982 
 1260000   -205060.61     1.574428  0.002010482    61.449079    61.434313    61.488074    3634.6534 
 1265000   -204877.65    1.6053459 -0.0023315867    61.389039    61.572153    61.688515    3654.3098 
 1270000   -204924.63    1.6120017  0.002561249     61.43931    61.487682    61.353882    3673.8581 
 1275000   -204903.79    1.6216224 -0.0033543249    61.664287    61.522107    61.399482    3693.4797 
 1280000   -204846.98    1.5925038 0.00018228462     61.28806    61.614007    61.529477    3713.1094 
 1285000   -205012.15    1.6209907 -0.002772628    61.273459    61.549594    61.694429    3732.6971 
 1290000    -205019.2    1.6008087 0.0031899038    61.364262     61.39498    61.495262    3752.2782 
 1295000    -204975.6    1.5531632 -0.00089182382    61.542119    61.400419     61.43875    3771.8915 
 1300000   -204679.43    1.6209989 -0.0010816373    61.392835    61.598805    61.650246    3791.4863 
 1305000    -204824.3    1.5888116 0.00013140587    61.533835    61.586099    61.666466    3811.1457 
 1310000   -204743.84    1.6224771 -0.0024001957    61.576035    61.681874    61.649447    3829.6887 
 1315000   -205045.95     1.608843 -0.00076458563    61.724811    61.419555     61.52057    3848.6303 
 1320000   -204619.72    1.5746598 0.0010265749    61.794336    61.576181    61.382406    3868.1421 
 1325000   -204742.45    1.6319996 -0.001047834    61.514803    61.586628    61.634492    3887.6747 
 1330000   -204729.53    1.6100743 0.00057538995     61.59895    61.711948    61.508184     3907.146 
 1335000   -204791.82    1.6468011 0.0043754314    61.704524    61.565489    61.295694    3926.6641 
 1340000   -204923.29    1.6016632 0.0024326568    61.733927    61.457665    61.186574    3946.3993 
 1345000   -204706.77    1.5920398 -0.0055643068    61.618637    61.599114     61.75182    3966.0184 
 1350000   -204669.74    1.5794656 0.00061624516     61.54236    61.747799    61.660967    3985.6161 
 1355000   -204869.44    1.6115153 -0.00016482919    61.689532    61.279749    61.642006    4005.1354 
 1360000   -204643.88    1.5885816 0.0016793857    61.476731    61.751395    61.554823    4024.7829 
 1365000   -205028.66    1.6464718 -0.0014598501    61.494021     61.57462    61.470486    4044.3744 
 1370000   -205013.41    1.5654502 0.0044165319    61.370184    61.309363    61.623908    4063.9068 
 1375000   -205142.24    1.6140738 0.00090545488     61.60671     61.08946    61.569839    4083.4975 
 1380000   -204932.89     1.612048 0.0058115683    61.374493     61.45937    61.319626    4103.1002 
 1385000   -205022.38    1.5866813 -3.4743812e-05    61.383276    61.471164    61.397781    4122.8426 
 1390000   -204935.51    1.6012832 0.0038632045    61.358384    61.413635    61.556647    4142.4508 
 1395000   -205092.69    1.6033964 -0.0021012762    61.598583    61.488005    61.241347    4162.0596 
 1400000   -204979.94    1.6302531 0.0010274715    61.288921    61.541525    61.569883    4181.5603 
 1405000    -205044.1      1.58427 0.0050800234    61.532929    61.326081    61.359547    4201.1551 
 1410000   -204899.07     1.608772 -0.002834065    61.588313    61.788169    61.322052    4220.8348 
 1415000    -205004.8    1.6458222   -0.0016359    61.482054    61.523274    61.395233     4240.406 
 1420000   -204877.37    1.6091759 0.0088849162    61.331343    61.537027    61.380363    4260.0161 
 1425000   -204902.52    1.5630998 -0.0052175062    61.573056    61.450178    61.636751    4279.5871 
 1430000   -204822.56     1.654635 0.0018447459    61.771118    61.381879    61.504994    4299.2434 
 1435000   -204797.98    1.5895075 0.0026642273    61.487302    61.461746    61.662801    4318.9208 
 1440000   -205043.52    1.5964629 0.0014158265    61.457032    61.635499    61.321145    4338.4529 
 1445000    -205183.5    1.6084812 0.0013052685    61.422269    61.327523    61.406733    4357.9892 
 1450000   -204930.31    1.6144841 -0.0028943072    61.565993    61.459408    61.542135     4376.579 
 1455000   -204876.47    1.5814354 0.0042876496    61.355443    61.321943     61.66157    4395.0788 
 1460000   -204619.88    1.5600158 -0.006009945    61.793318    61.573555    61.569943    4414.6891 
 1465000      -205031    1.6053952 0.0037217449    61.438352    61.557685    61.304247    4434.3337 
 1470000   -204893.46    1.6050322 0.0031634797    61.504628    61.397902    61.500206    4453.9094 
 1475000   -204902.74     1.629422 -0.00052605772     61.52226    61.629937    61.401636    4473.5713 
 1480000   -205098.68      1.60252 0.00057755902    61.371223    61.602073    61.363421    4493.2591 
 1485000   -204916.59    1.5707575 -0.0021076161    61.569628    61.682426    61.340294    4512.9084 
 1490000   -204937.83    1.5950496 0.0042953968    61.431534    61.438986    61.490089    4532.5319 
 1495000   -204819.86    1.6030716 -0.0015496936    61.356209    61.547204    61.839014    4552.0489 
 1500000   -205067.39    1.5855269 -0.0059706975    61.381467    61.881856    61.464949    4571.6654 
 1505000   -204975.95    1.5539721 -0.0035958027    61.501227    61.621626    61.496928    4591.2323 
 1510000   -205048.47    1.5844209 -0.00028599585    61.492804    61.461627    61.439029    4610.8712 
 1515000   -204918.58    1.6157611 -0.0031584105    61.545919    61.562465    61.436445    4630.5012 
 1520000   -204891.92    1.5817283 0.0046353411    61.681153    61.447272    61.204374    4650.2005 
 1525000   -204851.55    1.5804105 -0.0012057467    61.707752    61.444015    61.546152    4669.8384 
 1530000   -204846.61    1.5797904 0.0058201619    61.423289    61.497076    61.444707    4689.4533 
 1535000   -205003.68    1.6024912 -0.0020430941    61.410144    61.572294    61.476802    4708.9898 
 1540000   -204922.38    1.5880869 -0.0031208365    61.520658    61.576669    61.481578    4728.5764 
 1545000   -204848.14    1.6010121 0.0020778848    61.362208    61.442414    61.508951    4748.1874 
 1550000   -204924.13    1.6152196 -0.0065136852    61.680158     61.55965    61.503125    4767.8238 
 1555000   -204766.28    1.6350689 -0.0027834665     61.59037    61.681064    61.437758    4787.3743 
 1560000   -204646.79    1.5897806 0.0040058284    61.478547    61.729968     61.49614     4806.939 
 1565000   -204829.18    1.6524458 0.0014628542    61.494574    61.479801    61.529407    4826.5304 
 1570000   -204755.61    1.6080944 0.0044448993    61.365257    61.671867      61.4325    4846.2179 
 1575000   -204892.03     1.625717 0.00012109494    61.621514    61.595518    61.466628    4865.8706 
 1580000   -204910.76    1.6016964 0.0028140249    61.548519    61.612327    61.388228    4885.4622 
 1585000   -205037.29    1.5835413 0.00025424399    61.310342    61.569234    61.586173    4905.1901 
 1590000   -204852.41    1.6506485 -0.0031892157    61.793861    61.558149     61.55167    4924.8107 
 1595000   -204859.02    1.5928329 6.9817062e-05    61.593948    61.486544    61.486464    4944.4477 
 1600000   -204955.96    1.6439387 0.00065892977    61.193212    61.745073    61.622973    4964.0391 
 1605000   -205041.71    1.5692859 -0.0085820672    61.450845    61.625189    61.619827    4983.5658 
 1610000   -205023.78     1.605374 0.0053468422    61.423063    61.428058    61.442509    5003.0855 
 1615000      -205070    1.5711969 -0.002359754    61.540233    61.540343    61.437631    5022.6915 
 1620000   -205029.75    1.5649652 -0.00034133455    61.514401    61.575877    61.451057    5042.3364 
 1625000   -205050.11    1.6073046 0.0009295162    61.335596    61.951132    61.244359    5061.8591 
 1630000   -205098.17    1.5753115 0.0020807121    61.273374    61.512004    61.532033    5081.3965 
 1635000    -205164.9    1.5792032 0.0054266763      61.3012    61.315436     61.42029    5101.0882 
 1640000   -205066.11    1.5986728 -0.0011652791    61.397463    61.534091    61.395014     5120.725 
 1645000   -205208.15    1.6142921 0.0040224264    61.399595    61.449087    61.306355    5140.3983 
 1650000   -205142.02    1.6073649 0.00095722389     61.56705    61.304502    61.504786    5159.9881 
 1655000    -205108.7    1.5642455 0.0038253859    61.247842    61.532265    61.415212     5179.729 
 1660000   -205060.58    1.5689169 0.0018291318    61.606442    61.557749    61.369417    5199.4521 
 1665000   -205238.66    1.6197364 0.0069984182    61.301494    61.333363     61.45379    5219.0488 
 1670000   -204773.93    1.6056045 0.0015784286    61.682574    61.553856    61.495869    5238.7092 
 1675000   -204850.03    1.6424083 -0.0013559362    61.672222    61.574725    61.449599     5258.297 
 1680000   -204956.45    1.6139263 -0.0023031372    61.644154    61.563615    61.427108    5277.9312 
 1685000   -205112.72    1.5759893 0.00056459492    61.327523    61.481865    61.640187     5297.613 
 1690000   -205103.61    1.6036888 0.0031172531    61.281584    61.453105    61.575317    5317.2585 
 1695000   -205012.12     1.571646 -0.00021633291    61.490756    61.706283    61.277277    5336.8397 
 1700000   -205126.57    1.5862941 -0.0022440025     61.58429     61.43244    61.475474    5356.4501 
 1705000   -204815.98    1.5690455 0.0029846619    61.579328    61.499281    61.281917    5376.1041 
 1710000   -205019.03    1.6405744 -8.5556299e-05    61.525114    61.357027     61.50183    5395.7582 
 1715000   -205120.34    1.5821388 0.0036062806      61.4827    61.150995     61.40753    5415.3908 
 1720000   -205011.58    1.6010029 -0.00063722362    61.545923    61.400619    61.414228    5435.0225 
 1725000   -204846.42    1.5987295 -0.0019447624    61.500607    61.744491    61.546073    5454.6254 
 1730000   -204988.64    1.5893149 -0.0035111698    61.264271    61.870547    61.365027    5474.1533 
 1735000   -204931.99    1.5838618 0.0012566542    61.637205    61.442708    61.285044    5493.7363 
 1740000   -204934.56    1.5838851 -0.00037096548    61.564415    61.425303    61.505449    5513.3158 
 1745000   -204980.09    1.6635429 0.0033843029    61.460977    61.545648    61.458202    5532.8935 
 1750000   -204742.48    1.5643461 0.0016877396    61.573573    61.464338     61.57783     5552.431 
 1755000   -204736.89     1.620348 0.0081362905     61.50039     61.49492    61.472003    5571.9138 
 1760000   -204579.85    1.6311085 -0.0031813393    61.580291    61.757089    61.702564    5591.5011 
 1765000   -204680.55    1.6157214  0.001156685    61.467579    61.495722    61.673428    5611.1735 
 1770000   -204751.82    1.5960974 0.0018493125    61.675825    61.642093    61.310637    5630.7949 
 1775000   -204832.61    1.5723587 0.0031559105    61.513101    61.315625    61.788578    5650.4709 
 1780000   -204540.89    1.5751879 0.0009315971    61.691671    61.635542    61.586631    5670.0164 
 1785000   -204802.69    1.5702659 -0.0022934776    61.653933    61.369384    61.714274    5689.6312 
 1790000   -204931.47     1.597743 -0.0018204378    61.638084    61.532135    61.409053    5709.2316 
 1795000   -204914.05    1.5712077 -0.00012439313    61.392673     61.79974    61.313505    5728.8293 
 1800000   -204886.15    1.5725067 -0.003310621    61.594319    61.607328    61.552649    5748.3663 
 1805000   -204825.36    1.6434767 0.00042003693     61.48268    61.753041    61.488758    5768.0255 
 1810000   -204713.81    1.5777195 0.0037764569    61.146854       61.553    61.880481    5787.6952 
 1815000   -204914.86     1.604538 -0.0020157278    61.642037    61.583266    61.556896    5807.2579 
 1820000   -204859.91    1.6016879 0.0042166418    61.496561     61.45607    61.549671    5826.8796 
 1825000    -204916.7    1.5953263 -0.0057662335    61.887464    61.263237    61.642426    5846.5604 
 1830000   -204885.58    1.5588538 -0.00089490898    61.410883    61.538607    61.537363    5866.1717 
 1835000    -204910.8    1.6104964 -0.0012943889    61.679078    61.560989    61.416507    5885.7655 
 1840000   -204830.87    1.6030864 0.0012945988    61.534069    61.546145    61.619188    5905.2856 
 1845000    -204902.7    1.6134697 -0.00066281854    61.393043    61.574756    61.507107    5924.8618 
 1850000   -204909.02    1.5982453 0.0045084274    61.455152    61.277588     61.60524    5944.4928 
 1855000    -204730.6    1.5450386 -0.0028468622    61.397237    61.501987     61.95036    5964.1122 
 1860000   -204918.82    1.5741985 0.00050945757    61.447618    61.469014    61.588123    5983.7509 
 1865000   -205020.41    1.5648227 -0.007520001    61.568057    61.568928    61.449796    6003.4097 
 1870000   -205068.47    1.6178868 -0.00099841344    61.483826    61.531722    61.423171    6023.1824 
 1875000   -204966.25     1.612833 -0.0061527197    61.533518    61.694819    61.444803    6042.8212 
 1880000   -204956.96    1.5964205  0.003019115    61.430139    61.472296     61.44293    6062.4712 
 1885000   -205145.54    1.6330787 0.00067584572    61.315693    61.636853    61.376085    6081.9681 
 1890000   -205073.59    1.6021819 0.00048385853    61.377933     61.41506    61.540316    6101.7021 
 1895000   -205129.51    1.6512731 -0.0017352841    61.381821    61.394035    61.648439    6121.2674 
 1900000   -204852.19    1.6404389 -0.0026778019    61.563814    61.513867    61.601043    6140.8821 
 1905000   -204694.59    1.6055911 -0.0047674414    61.409801     61.80708    61.540117    6160.5309 
 1910000   -204824.24    1.6030652 0.0047553413    61.516698    61.360106    61.540376    6180.1307 
 1915000   -204782.41     1.586796 -0.0020580169     61.46422    61.483986    61.762756    6199.7021 
 1920000   -204812.23    1.6176356 0.00028716893    61.440398    61.783334    61.489944    6219.3328 
 1925000   -204943.07    1.5827384 -0.0027958197     61.44509    61.639866    61.581918    6238.9076 
 1930000    -205125.8    1.6403265 -0.002027958    61.464302    61.565023    61.374006     6258.565 
 1935000   -204924.72     1.600505 0.00085658493    61.547086    61.396595    61.517206    6278.0404 
 1940000   -204850.52    1.5858277 -0.0036412726     61.56918    61.557196    61.400828    6297.6006 
 1945000   -204789.93    1.5734981 -0.0077771893    61.480462    61.726218    61.553366    6317.2624 
 1950000   -204775.71    1.5755309 -0.0017354315    61.779706    61.320933    61.634287    6336.9159 
 1955000   -204851.73    1.5816571 -0.00099729757    61.840974     61.44661    61.405678    6356.5556 
 1960000   -204906.62    1.5575017 -0.0040638499    61.592126    61.568078    61.568471    6376.1619 
 1965000   -204772.54    1.5469419 -0.0033436565     61.39156    61.553482    61.716888    6395.7436 
 1970000   -204988.27    1.6379927 -5.3541859e-05      61.5413    61.341662    61.637533     6415.285 
 1975000   -204952.72    1.5946332 -0.0028111198    61.556533    61.523465    61.530647    6434.8079 
 1980000   -205266.87    1.5830707 0.00095998278    61.262881    61.316013    61.616884    6454.2952 
 1985000   -205030.19    1.5935693 0.00047155801    61.375613    61.621491    61.338355     6473.888 
 1990000   -205160.94    1.6281226 0.0010776394     61.49713     61.57719    61.253214    6493.4825 
 1995000    -205021.2    1.6013735 -0.0012798599    61.408994    61.553926    61.412002    6513.1452 
 2000000    -205023.9    1.6058967 -0.00068794342    61.525738    61.342228    61.342968    6532.6452 
 2005000   -205056.56    1.6311755 -0.0031912049    61.522483    61.521631    61.438677    6552.2633 
 2010000    -204815.3    1.5844171 0.0012917651    61.389117    61.801735    61.344018    6571.9271 
 2015000   -205027.71    1.5471365 -0.0030373396    61.545031    61.683681    61.276667    6591.5795 
 2020000   -205053.57    1.5884469 -0.0019995732    61.309507    61.691794    61.532247    6611.3283 
 2025000    -205074.4     1.597805 0.0043222458    61.462233    61.264423    61.407658    6630.8859 
 2030000   -204921.59    1.6390869 0.0057157424    61.518692    61.316141    61.340819     6650.497 
 2035000   -204950.82    1.6168169 -0.011900696    61.730554    61.605161    61.543712    6670.0584 
 2040000    -205031.4    1.5827913 0.0032360559    61.479173    61.404926    61.433841    6689.5583 
 2045000   -205031.64    1.6185443  -0.00488891    61.462055    61.489303    61.574182    6709.1458 
 2050000   -204878.71    1.5780808 0.0012399554    61.485775     61.41818    61.583987    6728.8197 
 2055000   -204966.34    1.5825468 -0.0038550437     61.82815    61.460194    61.437028    6748.5384 
 2060000   -204945.41    1.6109244 0.0032813881    61.591063    61.494303    61.327163    6768.1491 
 2065000   -205035.25    1.6821006  0.001660247    61.561968    61.500424    61.484909    6787.7537 
 2070000   -204892.13    1.5869966 0.0014120589    61.641551     61.65124    61.318117    6807.2504 
 2075000   -204947.17    1.6369087 -5.4526959e-06    61.461727    61.499801     61.55908     6826.882 
 2080000    -205055.8     1.624135 -0.00073702014    61.434188    61.381171    61.557357    6846.5508 
 2085000   -204910.29    1.6290235 -0.0029089536    61.524612    61.305897    61.741693    6866.2143 
 2090000   -204781.77    1.6428616 0.0020295456    61.672464    61.401077    61.549083    6885.7451 
 2095000   -204735.23    1.6336065 0.0038880565    61.395399     61.67901    61.503968    6905.3576 
 2100000   -205003.42    1.6230188 -0.00048053277    61.679718    61.213592    61.482762    6925.0001 
 2105000   -205084.12      1.58435 -0.0024512217    61.484522    61.524218    61.460755    6944.7594 
 2110000   -205121.59    1.5876822 0.0010260828    61.532481     61.19255    61.514411    6964.3352 
 2115000   -205115.15     1.609143 0.00062972606    61.497848    61.218253    61.454784     6983.922 
 2120000    -204938.3      1.64958 -0.0012265291    61.592168    61.185999    61.687415    7003.5818 
 2125000   -205182.41    1.6337401 -0.001612165    61.515048    61.390005    61.432535    7023.1573 
 2130000   -204752.45    1.6155578 0.0062980082    61.308775    61.570123    61.483792     7042.794 
 2135000   -204742.61    1.5999823 -0.0072532545    61.687751    61.567138    61.596568    7062.2818 
 2140000   -204978.74    1.5940688 -0.0035689882    61.463886    61.553123    61.569414    7081.9026 
 2145000   -204890.43    1.6396059 0.0063953237    61.485736    61.261535    61.732143    7101.5351 
 2150000   -204999.48    1.6144059 -0.00059571981    61.424268    61.593131    61.492068    7121.1737 
 2155000    -204816.5    1.5622341 -0.0022970862    61.703279    61.478082    61.617343    7140.8204 
 2160000   -204813.67    1.5694398 0.0029854785    61.604751    61.374304      61.4236    7160.4247 
 2165000   -204944.47    1.6406822 0.00019841817    61.607174    61.438417    61.470144    7180.0655 
 2170000   -205033.94    1.6237279 0.0032023033     61.38739     61.52933    61.346705     7199.695 
 2175000   -205065.89    1.5849037 -0.0070993097    61.329263    61.476624    61.720524    7219.2902 
 2180000   -205012.71    1.5484429 -0.0016424135     61.50168    61.637577     61.29569    7238.8894 
 2185000   -204925.34     1.626575 -0.0050341279    61.548852    61.605949    61.583747    7258.4789 
 2190000   -204827.56     1.578362 0.0058285082     61.59252    61.315867    61.488232    7278.1063 
 2195000   -204874.77    1.6269538 -6.9648348e-05    61.458512    61.430318     61.61851    7297.7428 
 2200000   -204632.65    1.5436314 -0.0012499509    61.544654    61.784741    61.454497    7317.4131 
 2205000   -204783.41    1.6061596 -0.0043575523    61.772818    61.656124    61.366035    7336.9725 
 2210000   -204966.41    1.5932809 -0.0026935272    61.397944    61.537054    61.603625    7356.5078 
 2215000   -204928.51    1.6277162 0.0025285821    61.522967    61.517124    61.458617    7376.1334 
 2220000   -204877.39    1.6370755 -0.0025741817    61.565011    61.436651    61.769753    7395.6702 
 2225000   -205016.75    1.5946428 -0.00094502155    61.553167    61.611387    61.245141    7415.1661 
 2230000   -205027.92    1.5626919 -0.00079987779    61.696107     61.35815    61.495112    7434.7531 
 2235000   -205117.45    1.6237444 0.0073609177     61.19063    61.307744    61.643637    7454.3137 
 2240000   -204961.54     1.605557 0.0075668444    61.412629    61.391169    61.388505    7473.8887 
 2245000    -204979.3    1.5798124 0.00089500471    61.443233    61.163707    61.663406    7493.5439 
 2250000    -204936.6    1.5961359   0.00111981    61.462062    61.404303    61.565837    7513.1294 
 2255000   -204952.81    1.5773582 -0.0029513421    61.253057    61.579912    61.631659    7532.8482 
 2260000   -204835.36    1.5562613 -0.0034570058    61.627506    61.562966    61.451785    7552.5562 
 2265000   -204881.35    1.6229792 0.0037774407    61.494893    61.473395    61.528003    7572.1353 
 2270000   -204815.39    1.6462267 0.00039326768    61.360298    61.564066    61.732401    7591.8384 
 2275000   -204593.79    1.5908647 0.0028138772    61.602752    61.452398    61.770149    7611.4841 
 2280000   -204642.31    1.5761077  -0.00249922     61.61385    61.750594    61.464194     7630.978 
 2285000    -204533.8    1.5594885  0.001938822    61.542378    61.613317    61.597553    7650.5641 
 2290000   -204603.02    1.5663671 0.0036195677    61.789574    61.593927    61.381173    7670.1959 
 2295000   -204656.47    1.6010409 -0.0050816831    61.746687    61.609906    61.632198     7689.773 
 2300000   -204789.47    1.5825037 -0.0046955716    61.908331    61.226311    61.574476    7709.3388 
 2305000    -204795.6    1.6299891 0.00048100828    61.557273    61.438078    61.514669    7728.8854 
 2310000   -204932.64    1.6163596 0.0034776808    61.611533    61.322848    61.458365    7748.4256 
 2315000   -204764.04    1.5961925 -0.00021795698    61.694946    61.181281    61.699408    7767.9924 
 2320000   -204866.54    1.5781559 0.0061725462    61.251552    61.385928    61.517804    7787.5272 
 2325000   -204712.41    1.6273349 -0.0011386965    61.687397    61.282134    61.734561    7807.1872 
 2330000    -204787.2    1.6237766  -0.00185765     61.59163    61.530254    61.662175    7826.8505 
 2335000   -204748.19    1.6720047 0.00089351995    61.437027    61.565118     61.49081    7846.4188 
 2340000   -204656.46    1.5820553 -0.00031388327    61.564563    61.516426    61.570713    7866.1513 
 2345000   -204906.04    1.5763605 0.0041031558    61.475496    61.577525    61.312199    7885.7117 
 2350000   -204813.15    1.5681259 0.00023641979    61.632199    61.469512    61.338248    7905.2629 
 2355000   -204723.66    1.6156197 -0.0044096649    61.766996    61.472121    61.578379    7924.8467 
 2360000   -204816.89    1.5756044 -0.007414684    61.702261    61.585142    61.475684    7944.4898 
 2365000   -204809.51    1.5912763 -0.0051226682    61.647252    61.327679    61.675521    7964.0685 
 2370000   -205005.84    1.6309318 -0.0027411678    61.628018    61.339052    61.510196    7983.8504 
 2375000   -204809.52    1.6176689 0.0042971518    61.437127      61.2804     61.68742    8003.4374 
 2380000    -204727.2    1.6500137 0.0028902173    61.454684    61.408269    61.617936    8023.0633 
 2385000   -204785.74    1.5548884 0.0028854055    61.522467    61.490077    61.340596    8042.6334 
 2390000    -204698.6    1.6063513 0.00025523695    61.416282    61.573934    61.601104    8062.2498 
 2395000   -204641.69    1.6041195 -0.0051329671    61.849243    61.445215    61.761224    8081.9392 
 2400000   -204818.93    1.5907382   0.00141167    61.474741    61.719583     61.48139    8101.5427 
 2405000   -204714.18    1.6599922 0.0017590646    61.621485    61.311342    61.922912    8121.1121 
 2410000   -204804.72    1.6444266 -0.002587516    61.751508    61.635663    61.498544    8140.6423 
 2415000   -204853.47    1.5686227 0.0033972412    61.663459    61.495403    61.511056    8160.2462 
 2420000   -204589.81    1.6242731 -0.005514257    61.952635    61.499121     61.69285    8179.7471 
 2425000   -204609.57    1.5796243 -0.0010384583    61.831627    61.602913    61.584101    8199.3745 
 2430000   -204386.19    1.6273401 -0.0015963065    61.832815     61.44556    61.782256    8219.0002 
 2435000   -204783.31    1.5880292 -0.0030268449    61.430177     61.75571    61.658211    8238.6737 
 2440000   -204616.68    1.5581397 0.0016562992    61.636023     61.48582    61.635631    8258.3059 
 2445000   -204832.15    1.5754451 0.0015675357    61.614099    61.482458    61.640327    8277.9425 
 2450000   -204663.88    1.5818184 0.0040258844    61.684427    61.439914    61.547022    8297.6001 
 2455000   -204645.31    1.6286631  0.002461254    61.640427    61.711933     61.64114    8317.1759 
 2460000   -204954.14    1.6138606 0.0044559809    61.537624    61.571815    61.411644    8336.8614 
 2465000   -204980.84    1.5760637 -0.0052445283    61.591535    61.672058    61.478304    8356.4864 
 2470000   -204890.23     1.661768 0.00079019713    61.565694    61.583841    61.492462    8376.0969 
 2475000   -204623.76    1.5990979 0.0017713391    61.429937    61.620658    61.826586    8395.5974 
 2480000    -204907.6    1.5996787 -0.00029857286    61.541594    61.518294    61.622264    8415.2021 
 2485000   -204816.62    1.5973535 -0.0044070753    61.767988    61.465886    61.581431    8434.8073 
 2490000   -204914.52    1.6090231 0.0025800607     61.56427    61.574292     61.52466    8454.3841 
 2495000   -204886.93    1.6072403 -0.0025720208    61.721413    61.388272    61.560878    8474.0262 
 2500000    -204945.4     1.601509 -0.006484726    61.570747    61.564491    61.569827    8493.5984 
 2505000   -204930.53    1.6006206 0.0040884392    61.556863    61.480063    61.296369    8513.1402 
 2510000   -204895.23    1.5938677 0.0005938453    61.406507    61.482781    61.526512    8532.6688 
 2515000   -204849.75    1.5827647 -0.00047975284    61.503183    61.580109    61.442187    8552.2357 
 2520000   -204885.71    1.5831312 0.00057064515    61.742201    61.337921    61.451827    8571.8752 
 2525000   -204885.84    1.6239494 0.0034334727    61.603238    61.285807    61.531445    8591.4919 
 2530000   -204913.35    1.6051609 -0.0010910397    61.500733    61.754438    61.324839    8611.0274 
 2535000   -204843.33    1.5358625 -0.00052010811    61.527688    61.878669     61.29299    8630.6265 
 2540000   -204958.09    1.5801258 0.0029355059    61.416913    61.588116    61.528196    8650.2297 
 2545000   -204871.13    1.5647644 -0.0020290585    61.445009    61.534849    61.773954    8669.8305 
 2550000   -205084.64    1.6000363 -0.00065374744     61.47219    61.568371    61.368454    8689.4096 
 2555000   -205296.51    1.6349923 0.00027276858    61.445926    61.508087    61.352422    8709.0399 
 2560000   -205003.06    1.5861312 -0.0032999229    61.672602    61.579384    61.443276    8728.7799 
 2565000   -205195.23      1.62011 0.0053242543    61.566704    61.294093    61.253882    8748.4632 
 2570000   -204775.37    1.5805521 -0.0042146421     61.62746     61.79549    61.370596      8768.06 
 2575000   -205029.97    1.6117774  0.010581883    61.098589    61.585362    61.519552    8787.5708 
 2580000   -205117.83     1.598853 0.0016093165    61.448696    61.504396    61.291434    8807.1314 
 2585000    -205048.5    1.6351279  0.001758355    61.307699     61.49788    61.550715    8826.7846 
 2590000   -205019.78    1.6025107 0.0015934719    61.496624    61.415629    61.478038     8846.421 
 2595000   -204937.28    1.6244548 0.00079517522     61.34936    61.683841    61.581154    8865.9455 
 2600000   -204924.85    1.5818644 -0.0039511706    61.459401    61.649089    61.422251    8885.5161 
 2605000    -204937.3    1.6205563 -0.0012479135    61.483655    61.499658     61.48818    8905.0656 
 2610000   -204957.12     1.581359 -0.0015061447    61.180058     61.52209    61.673495    8924.6913 
 2615000    -205022.2    1.5814866 0.0027248845    61.266097    61.387751     61.59739    8944.2436 
 2620000   -204970.22    1.5837872 -0.0035331316    61.476854    61.430661    61.629536    8963.8377 
 2625000   -205084.32    1.5708434 -0.0011281018    61.571084    61.295172    61.485544    8983.4391 
 2630000   -204948.18    1.5988224 0.00079032918    61.681935    61.344811    61.386196     9003.066 
 2635000   -205001.36    1.5943177 0.0019631288    61.506457    61.389467    61.429335    9022.6243 
 2640000   -204870.85    1.5882435 0.0019711853    61.380949    61.583601    61.336106    9042.3263 
 2645000   -205046.84    1.5815766 0.0051593028    61.326587    61.331303    61.344985    9061.9855 
 2650000   -204872.08    1.6289472 -0.0025900188    61.557724    61.475531    61.480457    9081.5562 
 2655000   -205021.97    1.6189736 -0.0018608518    61.411276    61.426055    61.553325    9101.2526 
 2660000   -204918.07    1.5868325 -0.0039586329    61.558335    61.749872    61.355463    9120.8816 
 2665000   -205015.71    1.6375315 0.0021111106    61.493874    61.286495    61.602027     9140.438 
 2670000   -204864.63    1.6014817 -0.0013620784    61.709944     61.36534    61.526288    9160.0494 
 2675000   -204957.13    1.6300827 -0.00041347946    61.509495    61.602586    61.408877    9179.7903 
 2680000   -205012.64    1.5828633 0.0001928391    61.747873    61.388772    61.139213    9199.3927 
 2685000   -204945.05    1.6400276 0.0021282303    61.492594    61.447484    61.425584    9218.9622 
 2690000   -204949.11    1.6010178 0.0033302494     61.44489    61.530606    61.374244    9238.5822 
 2695000   -204824.87    1.5611774 0.00060745606    61.560349    61.396731    61.559033     9258.276 
 2700000   -205018.54    1.5977588 0.0026105913    61.327777     61.55317     61.57433    9277.8572 
 2705000   -204881.18    1.6495954 0.00040708286    61.458745    61.638084    61.502418    9297.4807 
 2710000   -204785.85    1.5785811 -0.0012307679    61.593228    61.405424    61.614686    9317.0226 
 2715000   -204906.35     1.602247 -0.00074159005    61.476462    61.465783    61.613878    9336.6042 
 2720000   -205133.08    1.6083478 0.00030893397    61.392773    61.446677    61.539599    9356.2876 
 2725000   -204893.15     1.587728 -0.0057111789    61.671922    61.538592    61.669244    9375.9837 
 2730000   -204975.75    1.5992618 0.0014293554    61.565908    61.393448    61.575685    9395.7203 
 2735000   -204730.67    1.5790192 0.0012462863    61.485019    61.444049    61.639489    9415.3651 
 2740000   -204863.23    1.5920366 -0.0027816392    61.486567    61.562625     61.66056    9434.9578 
 2745000   -205003.54    1.6594791 0.0047011999    61.346604    61.344564    61.577682    9454.5441 
 2750000   -204999.86    1.5944857 -0.0026999135    61.382624    61.313744    61.746089     9474.145 
 2755000    -204846.5    1.6098536 -0.0022060431    61.465901    61.436551    61.771522    9493.6975 
 2760000   -204950.73    1.6084204 0.0053099188     61.32075    61.517694     61.43982    9513.3262 
 2765000   -205136.54    1.5790285 -0.0001166526    61.410943    61.413957    61.580986    9532.9784 
 2770000   -204914.05    1.5997386 0.0022301519    61.436492    61.500725    61.719351    9552.5438 
 2775000   -204784.59    1.5890696 0.00035183058    61.507385    61.584724    61.723735    9572.1061 
 2780000   -204912.82    1.6078186 0.00036495882    61.378817    61.529069    61.707564    9591.7012 
 2785000   -204848.16    1.5918162 -0.0019057089    61.640953    61.682374    61.239105    9611.3394 
 2790000   -205077.08    1.5917415 0.0012869819     61.42819    61.666543    61.183367    9630.9439 
 2795000    -205023.1    1.5850288 -0.0031362117    61.508493    61.298651    61.675143     9650.582 
 2800000   -205109.57    1.5994578 0.0040975816    61.317679    61.571648     61.46294    9670.2137 
 2805000   -205185.12    1.5682315 0.0027935692    61.491262    61.346532    61.399904    9689.8309 
 2810000   -204928.62    1.5750729 -0.0016017133    61.395888    61.464947    61.590882    9709.6003 
 2815000   -205147.66    1.6003098 0.0022913865    61.499873    61.231417    61.454703    9729.1857 
 2820000   -205160.85     1.612265 0.00033680434    61.527436    61.374153     61.36763    9748.7663 
 2825000    -205034.3    1.6574331 0.0016353611    61.481638    61.454829    61.413897    9768.4135 
 2830000   -205123.32    1.6157613 0.0052070103    61.332195    61.515773    61.337826    9788.1336 
 2835000   -205049.34    1.5383487 -0.0021959419    61.378508    61.550829    61.456081    9807.6619 
 2840000   -204876.58    1.6256779 -0.0016883724    61.625012    61.512947    61.513512    9827.4071 
 2845000   -204740.83    1.5936907 -0.0021352307    61.767438    61.725333    61.425966    9847.1318 
 2850000   -205068.59    1.5584088 0.00038754398    61.661652    61.439872    61.263379    9866.7755 
 2855000   -204957.18    1.5661604 -0.00011042139    61.501479    61.602371     61.30279    9886.3727 
 2860000    -204894.7    1.6099869  0.002742977    61.378751    61.475456    61.598388    9905.9996 
 2865000   -204673.41     1.599318 0.0043713818     61.41566    61.602633    61.709828     9925.619 
 2870000   -205006.39    1.6576918 0.0012400808    61.344667    61.662476    61.560988    9945.3014 
 2875000   -204837.59    1.6374031 -0.0034326466    61.689757    61.456994    61.735476    9964.9544 
 2880000   -204999.91    1.5846211 0.0013804978    61.476565    61.488149    61.538457    9984.6628 
 2885000   -204964.91    1.6040041 4.559987e-05    61.638699    61.355064    61.561125    10004.233 
 2890000   -205032.39    1.6366489 -0.0033296595    61.447212     61.61692    61.498395    10023.882 
 2895000   -205080.63    1.5832428 0.0066497334     61.38049    61.548194    61.248237    10043.468 
 2900000   -204934.25    1.5782224  0.004393466    61.491065    61.244352    61.560341    10063.001 
 2905000   -204889.68    1.5889047 -0.0019368077     61.62799    61.493352    61.580654    10082.649 
 2910000   -204906.76    1.5820787 0.0018390827    61.559321    61.546047    61.490029    10102.398 
 2915000    -204836.8    1.6000478 0.0029992933    61.445882    61.716899    61.419213     10122.01 
 2920000   -204827.06    1.5988427 -0.0012183501    61.699484    61.558099    61.477399    10141.724 
 2925000   -205032.06     1.573341 0.0035352376    61.496302    61.380333    61.397189    10161.286 
 2930000   -205063.38    1.5658891 0.0025449079    61.409936    61.350584    61.520749    10180.855 
 2935000    -205090.6    1.5565228 -0.0022118082    61.192175     61.47638    61.681479    10200.421 
 2940000   -204692.98    1.5521644 -0.003095168    61.228632    61.511206    62.017244    10220.074 
 2945000    -204927.9    1.5943516 -0.0011600047    61.448869    61.660576    61.423525    10239.788 
 2950000   -204922.47    1.5979704 -0.0011585348    61.539797    61.446757    61.584433    10259.384 
 2955000   -204907.77    1.6077932 0.00051172313    61.420968    61.463335    61.473782    10279.121 
 2960000   -205236.28    1.5913827 0.0049767806    61.338644    61.374834    61.333261    10298.803 
 2965000   -204873.88    1.5811222 -0.0012719014    61.175446      61.7124    61.544814    10318.428 
 2970000   -204962.61    1.5621766 -0.00053592064    61.365116      61.7081    61.584261    10337.937 
 2975000   -205006.89    1.5909377 -0.0024629088    61.396509     61.40676    61.694282    10357.521 
 2980000    -205274.2    1.6410638 0.00010882441    61.602005    61.320047    61.352508    10377.102 
 2985000   -205176.78      1.64291 -0.0043625543    61.530332    61.481432    61.469092    10396.659 
 2990000   -205310.33    1.6200881 -0.0011940031    61.422271    61.485968    61.343681     10416.22 
 2995000   -205046.56    1.5508202 0.0014028855    61.600656    61.177424    61.498286    10435.817 
 3000000   -204898.24    1.6068958 0.0026019571    61.447854    61.670235    61.293552    10455.482 
 3005000   -204963.07    1.5922719 -0.0023021168    61.472749    61.632554     61.55989    10474.943 
 3010000   -204949.03    1.5876109 0.0015076458    61.386757    61.495598    61.626544    10494.544 
 3015000    -204771.8    1.5968562 -0.0032331369    61.608667    61.606778    61.572188    10514.064 
 3020000   -204845.27    1.6002019 -0.0056511468    61.722375    61.616797    61.689792    10533.554 
 3025000   -204649.85    1.6236486 -0.0019809514    61.504152    61.602844    61.823998    10553.073 
 3030000   -205023.22     1.605558 -0.0010441393     61.65566    61.487529    61.512209    10572.583 
 3035000   -204893.88    1.6176625 0.0045954631    61.521962    61.391051    61.516678    10592.143 
 3040000   -204842.01    1.6262099 -0.0077958006    61.609059    61.649957    61.638459    10611.701 
 3045000   -205063.47    1.5906119 0.0053395768    61.364568     61.25212    61.556569    10631.252 
 3050000   -204719.91    1.6164589  0.002124879    61.503641    61.615411    61.475246    10650.872 
 3055000   -204767.06    1.6335759 0.00015992916    61.522314    61.620689    61.472891    10670.467 
 3060000   -204776.14    1.6108585 0.00085099614    61.594191    61.564279    61.482885    10689.988 
 3065000   -204843.18    1.6053287 0.0050871304    61.689328    61.396759    61.383641     10709.69 
 3070000   -204810.86    1.6067503 0.0052812379      61.4259    61.579118    61.404734    10729.294 
 3075000   -204742.62    1.5716312 -0.0028465748    61.564726    61.565336    61.644017    10748.892 
 3080000    -204650.7     1.629241 0.0058369175    61.531061    61.477201     61.47492    10768.533 
 3085000   -204809.71    1.6068336 -0.0011077116    61.538574    61.576521    61.523456    10788.175 
 3090000   -204884.88    1.6098946 0.00027142247    61.383169    61.694021    61.479319    10807.761 
 3095000   -204955.55    1.5885563 -0.0021802533    61.595732    61.458057    61.506117    10827.277 
 3100000   -204939.47    1.5730665 0.00010351753    61.633815    61.270733    61.507864    10846.801 
 3105000   -205140.84    1.5733867 -0.0041565316    61.562258    61.394371    61.593631    10866.425 
 3110000   -205190.29    1.5728478 -0.00045868876    61.458554    61.327147    61.505545     10886.02 
 3115000   -205035.64    1.6459813 0.00084764729    61.173496    61.553691    61.535649    10905.678 
 3120000   -205108.61    1.6545012 0.0015034469    61.504875    61.362202    61.470334    10925.356 
[...]
22380000   -204356.06    1.6209499 -0.0024136864    61.748333    61.600359    61.742487    65075.982 
22385000   -204424.69    1.5889368 0.0031723346    61.969684    61.590688    61.427628     65094.99 
22390000   -204540.32    1.6027197 -0.0073419593    61.744713    61.786223    61.648787    65114.066 
22395000   -204401.79    1.6116258 0.0065498448    61.639434    61.622464    61.679977    65133.082 
22400000    -204452.9    1.6884424 -0.0034963632    61.736816    61.723798    61.817878    65152.132 
22405000   -204545.21    1.6090056 -0.0040160798    61.774234    61.585246    61.828021    65171.129 
22410000   -204327.19    1.5870655 0.0061922245    61.758664    61.560183    61.711289    65190.126 
22415000   -204416.92    1.5929456 -0.0017554061    61.838173    61.570212    61.660866    65209.148 
22420000   -204396.44    1.5801855 -0.0085420958    61.695563     62.12904    61.603534    65228.179 
22425000   -204473.43    1.6035974 -0.0039416993    61.685313    61.704949    61.609745    65247.204 
22430000    -204553.2    1.6313139 0.0046504677    61.488342    61.809716    61.570745    65266.209 
22435000   -204431.37    1.6008164 0.0016440652    61.547978    61.706856    61.758526    65285.203 
22440000   -204247.79    1.5870935 -0.0026440308    61.750575    61.783566     61.91492    65304.172 
22445000   -204130.74    1.6082173 -0.0006214563    61.725635    61.889598    61.876471    65323.206 
22450000   -204143.67     1.644007 0.0008314585    61.476434    61.872814    62.142471    65342.197 
22455000   -204257.37     1.602372 0.0018172453    61.890018     61.78004    61.582261    65361.236 
22460000   -204317.17     1.586834 0.0053830087    61.819919    61.429307    61.752306    65380.198 
22465000   -204404.52    1.5862773 -0.0042738664    61.619448    61.706995    61.912774    65399.118 
22470000   -204312.15    1.5854855 0.0006982156    61.522864    61.871771    61.892204    65418.071 
22475000   -204293.13    1.6293204 -0.0032435449    61.568495      61.7095    61.979463    65437.078 
22480000   -204461.75     1.579609 0.00098599244    61.732065    61.840511    61.474953    65456.061 
22485000   -204558.45    1.5594572 -0.0043812272    61.637429     61.98273    61.556048    65475.084 
22490000   -204299.27    1.5964687 0.0032419071    61.548176    61.871811    61.582452    65494.132 
22495000   -204503.47    1.5831992 0.0034235226     61.43722     61.79884    61.661485    65513.195 
22500000   -204599.25    1.5593248 0.0016959816    61.628907    61.510114    61.694378    65532.223 
22505000   -204717.89     1.624489 0.0006086047    61.505871    61.381523    61.783139    65551.296 
22510000    -204681.7    1.6042564 0.0021763357    61.781639    61.465712    61.495693    65570.363 
22515000      -204728    1.6503375 -0.0064408963    61.769397    61.518585    61.715803    65589.414 
22520000    -204686.5    1.6579143  -0.00551474    61.505571     61.67834    61.714079    65608.403 
22525000   -204507.96     1.567027 0.0046671218    61.530755    61.484684    61.808692    65627.418 
22530000   -204654.73    1.6194776 0.0074144301    61.489268    61.577524    61.599199    65646.413 
22535000   -204469.67    1.5911434  0.002152276    61.602119     61.75204    61.728285    65665.452 
22540000   -204221.87    1.5865541 -0.0030251454     62.15031    61.427855    61.834195    65684.412 
22545000   -204380.55    1.5939571 -0.0059445082    62.159449    61.349993    61.738284     65703.43 
22550000    -204413.1    1.6504505 -0.00067163556    61.702542    61.746146    61.746023    65722.496 
22555000   -204350.88    1.6340155 0.0049584773    61.436216    61.679824     61.80104    65741.628 
22560000   -204487.01    1.6199726 -0.0014252194    61.504706    61.616874    61.782177    65760.622 
22565000    -204456.6    1.5765548 -0.00018959264    61.611985    61.433077    61.851073    65779.613 
22570000   -204585.04    1.6120697 0.0074931005    61.588986    61.537794    61.577609    65798.677 
22575000   -204574.48    1.5805157 4.7466651e-05    61.659704     61.45709    61.739321    65817.663 
22580000   -204512.81    1.5940695 0.0012034032     61.59705     61.58338    61.655866    65836.738 
22585000   -204489.94    1.6371147 0.0028798671    61.658058     61.61798    61.533383    65855.795 
22590000   -204337.52    1.5954938 0.0036836989    61.699572    61.507315    61.535291     65874.78 
22595000   -204506.16    1.6296662 -0.0046253769    61.652326    61.832143    61.489246    65893.798 
22600000   -204563.32     1.579799 0.0018146414    61.468471    61.651721    61.660499    65912.788 
22605000   -204266.01    1.6462239 0.0041254733    61.884576    61.536149    61.690775    65931.742 
22610000   -204330.65    1.6160367 0.0038473236      61.7889    61.706761    61.590929    65950.727 
22615000   -204266.07    1.5510987 0.0014661876    61.798915    61.907117    61.407443    65969.733 
22620000   -204246.18    1.5759954 -1.1170667e-05     61.86179    61.698551    61.610098    65988.695 
22625000   -204408.61    1.6484909 0.0032950097    61.914299    61.541558    61.625206    66007.652 
22630000   -204246.44    1.5675543  0.001338441    61.874493    61.694695    61.539744    66026.618 
22635000   -204324.61    1.5972131 0.0013275369    61.825255    61.729524     61.62595     66045.59 
22640000   -204317.48    1.6147657 -0.0012776525    62.037827    61.879403    61.429375    66064.566 
22645000   -204299.17    1.5942144 -0.0025514916     61.74141    61.894904    61.814466    66083.579 
22650000   -204372.24    1.6406686 0.0021560945    61.485814    61.804597    61.787244    66102.599 
22655000   -204391.81    1.6133859 0.0003498137    61.577337     62.01978    61.728795    66121.651 
22660000   -204341.61    1.5839112 0.00052710501     61.44104    61.956684    61.756987    66140.687 
22665000   -204180.04     1.609033 0.00094498971    61.856181    61.582946     61.73728    66159.679 
22670000   -204168.87    1.6053835 -0.0026149651    61.870735    61.768848    61.693701    66178.715 
22675000    -204367.3    1.6492572 -0.00051363643    61.901586    61.659719    61.713183     66197.74 
22680000   -204420.21     1.645708 0.0010560848    61.832263    61.769973    61.482021    66216.782 
22685000   -204365.38    1.6069377 0.0008041226    61.567543    61.712644    61.789529    66235.795 
22690000   -204250.33    1.6093953 -0.0010803937     61.55286    62.002726    61.641139    66254.824 
22695000   -204430.02       1.5718 -0.0069615925    61.704185    61.836575    61.820006    66273.836 
22700000    -204443.1    1.6429664 -0.0026454398    61.797053    61.958977    61.542226    66292.889 
22705000   -204389.82    1.5947193 0.0034888066    62.023512     61.56172    61.447183    66311.912 
22710000   -204451.03    1.5959941 0.0048206028    61.835329    61.587041    61.487676    66330.941 
22715000   -204453.21    1.6116933 0.0020619161    61.749492    61.733366    61.490919    66350.005 
22720000   -204476.81    1.6174869 0.0013705118    61.613873    61.749767    61.613942    66369.141 
22725000   -204460.07    1.5591548 -0.0005567718    61.665725    61.555899    61.709525     66388.19 
22730000   -204420.11    1.5582941 -0.0027803474    61.754015    61.768991    61.707805    66407.218 
22735000   -204612.21    1.5860203 -0.000329101    61.504557    61.818471    61.695072    66426.286 
22740000   -204596.58    1.6164144 0.0062272943    61.587038    61.620523    61.508351    66445.398 
22745000   -204656.29    1.6410159 0.00061539377    61.505549    61.595262    61.716475    66464.461 
22750000   -204559.87    1.6191553 -0.003068043     61.82503    61.484153    61.695966    66483.504 
22755000   -204505.62    1.5708327 0.0014388195    61.945925    61.439951    61.588987    66502.465 
22760000   -204332.26    1.5645319 -0.0011191776     62.11321    61.419054    61.561961    66521.438 
22765000   -204492.03    1.6215717 0.0052940488    61.824529    61.403075    61.536356    66540.391 
22770000   -204513.51    1.6106054 0.0089396428    61.689097    61.545258    61.328791    66559.388 
22775000   -204584.25    1.5719934 -0.00017175354    61.813739    61.471623    61.640097    66578.398 
22780000   -204523.09    1.5441949 0.0061330892    61.651144    61.427667    61.505416    66597.404 
22785000   -204667.85    1.5704433 -0.0060193698     61.69361     61.50095    61.660987    66616.454 
22790000   -204817.11    1.6079508 0.00042671817    61.512632    61.584151    61.536997    66635.495 
22795000   -204626.93    1.5628715 0.00089595676    61.533738    61.440529       61.678    66654.622 
22800000   -204689.74    1.6075955 -0.0028918942    61.750886    61.581753    61.461471    66673.698 
22805000   -204854.49    1.6221065 -0.0062326112    61.515105    61.542616    61.704565    66692.725 
22810000   -204540.41    1.6135335 -0.0001279131     61.56074    61.452588     61.74429    66711.767 
22815000   -204447.84      1.61906 0.0031033152    61.621664    61.305127     61.85989     66730.82 
22820000   -204586.04    1.5997711 -0.0056310913    61.878208    61.608536    61.401266    66749.881 
22825000   -204581.48    1.5804479 0.0035844718    61.778883    61.332484    61.529377    66768.962 
22830000   -204713.29    1.5831984  0.001301291    61.775319    61.364627    61.421274    66788.008 
22835000   -204601.23    1.5923556 -0.00038605245    61.813103    61.416445    61.562545    66807.087 
22840000   -204598.28    1.6058636 -0.00045690563    61.906781    61.201936    61.774385     66826.14 
22845000   -204524.11    1.6077105 -0.0028516216    61.739893    61.611745    61.680223    66845.186 
22850000   -204446.52    1.5812825 -0.0058004037    61.758431    61.604133    61.784606    66864.207 
22855000   -204539.29     1.626583 -0.0012583777    61.485492    61.516856    61.992492    66883.166 
22860000   -204509.59    1.6518536 0.0050523878     61.54503    61.403144    61.699218    66902.218 
22865000    -204512.4    1.6070541 0.0036849341    61.673349    61.448759    61.719136    66921.296 
22870000   -204561.35    1.6041528 -0.005572952    61.825584    61.683364     61.71082    66940.317 
22875000   -204370.05    1.5940291 0.0037992814    61.653652    61.634461    61.703348     66959.34 
22880000   -204392.73    1.5964867 -0.00057182834    61.585811    61.584045    61.825796    66978.355 
22885000    -204557.4    1.6569412 -0.0028594259    61.527389      61.6639    61.672117    66997.393 
22890000   -204744.21    1.6138436 0.0033938223    61.305499    61.545716    61.772511    67016.466 
22895000   -204744.68    1.5832882 -0.0064981589    61.537643    61.647455    61.649298    67035.452 
22900000   -204861.54    1.6086158 0.0003270242    61.428024    61.552241    61.719495    67054.531 
22905000   -204723.25    1.6487445 0.0016278316    61.379928    61.636593    61.631541    67073.638 
22910000   -204660.15    1.5789332 0.0047341321    61.475571    61.729446    61.436207    67092.683 
22915000   -204554.46    1.5833853 -0.001103682    61.443533    61.680943    61.692689     67111.74 
22920000   -204606.97    1.6206848 0.00088834265    61.519362    61.507118    61.753516    67130.833 
22925000   -204512.72    1.5875567   0.00542106    61.349526    61.688143     61.52902    67149.904 
22930000   -204550.59    1.5664021 0.0055017333    61.451931    61.705398    61.351437    67168.966 
22935000   -204334.42    1.6111458 0.00063097001    61.407646    61.779544    61.559875     67188.01 
22940000    -204363.5    1.5663884 0.00043732563     61.42586    61.659634    61.826059      67207.1 
22945000   -204493.64    1.6046706 0.00032043691    61.529354    61.698414     61.70454    67226.106 
22950000   -204528.37     1.617333 0.0044747807     61.64036     61.57756    61.588956    67245.161 
22955000   -204541.24      1.61424 -0.0030931575    61.765061    61.532717     61.69721    67264.169 
22960000   -204134.61    1.5948173 -0.00089597361    61.707969    61.776942    61.690424    67283.161 
22965000   -204211.76    1.5938932 -0.0015441274    61.835298    61.682832    61.717645    67302.137 
22970000   -204247.94    1.6631612 0.00080956915    61.761456     61.64989    61.841722    67321.096 
22975000   -204334.79    1.6304551 0.0048564753    61.831472    61.479268    61.837756    67340.065 
22980000   -204450.83    1.6190414 -0.0016050433    61.960401    61.601458    61.610413    67359.132 
22985000   -204549.46     1.630192 0.0025314952    61.492634    61.742376    61.645238    67378.177 
22990000   -204389.15    1.5693494 -0.0050697668    61.666739    61.797365    61.781352    67397.238 
22995000   -204538.54    1.6112847 0.0006727644    61.603059    61.726495    61.538753    67416.274 
23000000   -204720.49    1.5999971 0.00026088784    61.817771    61.495294    61.498802     67435.31 
23005000    -204550.8    1.6382603 -0.00060099845    61.718998    61.633242    61.494034    67454.307 
23010000   -204573.16    1.6122266 -9.7895846e-05    61.793588    61.370108    61.633594    67473.377 
23015000   -204513.05     1.610715 0.0018308274    61.690897    61.534422    61.695588    67492.387 
23020000   -204538.98    1.5773096 -0.0063548226    61.795666     61.65025    61.585765    67511.386 
23025000   -204332.36    1.5805849 0.00015443127     61.74387    61.809591    61.556394    67530.383 
23030000   -204448.84    1.5786662 0.00084542748    61.603886    61.793213    61.681522    67549.414 
23035000    -204640.9    1.5984011  0.002064328     61.93433    61.667535    61.282591    67568.462 
23040000   -204439.94    1.6056779 -0.0030796596    61.816478      61.5845    61.654668    67587.499 
23045000   -204552.58    1.5920276 0.0030827492    61.653007    61.394687    61.566003    67606.529 
23050000   -204547.37    1.6169641 0.0012074878    61.542419    61.765203    61.554359    67625.528 
23055000   -204528.85    1.5771449 -0.0041224064    61.838048     61.79171    61.524956    67644.489 
23060000   -204757.29    1.5660143 0.0017388295    61.406692    61.783388    61.416662    67663.541 
23065000   -204481.45    1.6119711 0.0071072557    61.672224    61.520971    61.622492    67682.541 
23070000   -204589.39    1.5892788 0.0012335996     61.67309    61.654784    61.597853    67701.539 
23075000   -204559.53    1.6132504 -0.00071785681    61.691796    61.423978    61.684554    67720.665 
23080000   -204763.34    1.5663177 0.00018468955    61.718481    61.554911    61.367599    67739.758 
23085000   -204813.05    1.6123018 0.00035252633    61.760975    61.478771    61.375847    67758.794 
23090000   -204595.06    1.5734163 -0.0026728089    61.687147    61.611798    61.568006    67777.797 
23095000      -204657    1.5979707 -0.0013871035    61.653369    61.675167    61.502938      67796.8 
23100000   -204438.25     1.605813 -0.002478224    61.338194    61.745665    61.837511    67815.806 
23105000   -204562.31    1.5818028 -0.0001712366     61.25077    61.816457    61.710507    67834.799 
23110000   -204634.76    1.5985008 -0.00070711221    61.323995     61.66518     61.67945    67853.873 
23115000    -204969.6    1.6283788 0.00032973825    61.542604    61.509338    61.360115    67872.946 
23120000   -204696.64    1.6025344 -0.0027471685    61.654025    61.816517    61.333079    67891.974 
23125000   -204695.97    1.6070044 -0.0042181907    61.854424    61.542869    61.440164    67911.028 
23130000   -204788.48    1.6231144 0.0065569865    61.557844    61.560245    61.418328    67930.096 
23135000   -204556.91    1.5846184 -0.0088606274    61.904426    61.499741    61.684574    67949.155 
23140000   -204607.11    1.5943368 -0.0033371832    61.546189    61.572618    61.906563    67968.158 
23145000   -204609.32     1.579503 -0.0010264442     61.52197    61.543222    61.634058    67987.199 
23150000   -204471.94    1.6136905 -0.0042189044     61.83434    61.773543    61.397436    68006.227 
23155000   -204576.91    1.5967222 0.0068473167    61.774631    61.321636    61.508901    68025.244 
23160000    -204555.4    1.6041418 -0.0034961227    61.488952    61.725678    61.758969    68044.284 
23165000   -204526.45    1.6205365 0.0037962257    61.529386    61.697351    61.527126    68063.282 
23170000   -204554.98    1.6292111 0.0014492629    61.427068    61.559785    61.846177    68082.413 
23175000   -204601.32    1.6061063 -0.0036676982    61.337373    61.760977    61.873772    68101.443 
23180000   -204532.34    1.5804866 -0.0015882924    61.502186    61.859647    61.675748    68120.517 
23185000    -204639.3    1.5863095 -0.00058237015    61.554334    61.600445    61.702517    68139.599 
23190000   -204398.78     1.631998 -0.0004092529    61.446047    61.880227    61.569706     68158.69 
23195000    -204537.5    1.6305599 0.0040237838    61.565669    61.734495    61.389907    68177.686 
23200000    -204312.5     1.578074 -0.0003803418     61.82944     61.74499    61.543205    68196.695 
23205000   -204093.98    1.5768279 0.0030130972    62.036757    61.753153    61.418469    68215.701 
23210000   -204348.25     1.590938 0.00085037522    61.762909    61.793521    61.430008    68234.681 
23215000   -204541.96      1.61057 -0.0015933707    61.574814    61.918535    61.518976    68253.697 
23220000   -204375.08    1.5792644 -0.00089080208     61.60219    61.916594    61.565144    68272.691 
23225000   -204429.21    1.5832555 0.0012348174    61.616227     61.87471    61.507122    68291.704 
23230000   -204269.43    1.6418915 -0.002668146    61.723421    61.720654    61.880656    68310.704 
23235000   -204485.97    1.5761867 -0.0011245568     61.67239    61.838117    61.530458    68329.685 
23240000   -204553.41    1.5810247 -0.00059809268    61.561575    61.787442     61.53108    68348.674 
23245000   -204416.67     1.610759 0.0050232247    61.577364     61.69886    61.595034    68367.721 
23250000   -204343.27    1.6170979 0.0034659611    61.770556    61.651167    61.587599    68386.711 
23255000      -204319    1.5636543 0.00054407619    61.698099    61.833491    61.542183    68405.683 
23260000   -204260.18    1.6360026 0.0022665621    61.896601    61.817182    61.454546    68424.707 
23265000   -204316.01    1.5574916 -0.00075762681    61.678925    61.694578    61.635294    68443.687 
23270000   -204375.81    1.5828452 -0.00038189467    61.776323    61.613335    61.620849    68462.684 
23275000   -204542.12     1.559306 0.00052361167    61.694244    61.473529    61.637533    68481.675 
23280000   -204526.88    1.5854569  0.010319953    61.578702    61.524079    61.309367    68500.711 
23285000   -204520.47    1.6200325 -0.002583342     61.87433    61.557792     61.59158    68519.707 
23290000   -204506.01    1.6393159 0.00022162509    61.842093    61.795625    61.379121    68538.744 
23295000   -204515.41    1.6128759 0.00074240653    61.729604    61.869175    61.257828    68557.682 
23300000   -204533.06    1.5845062 0.00062118795    61.474955    61.831776    61.525077    68576.584 
23305000   -204608.32    1.6255973 0.0012053065     61.56465    61.824061    61.453394    68595.512 
23310000   -204453.34    1.5984337 -0.0039860178    61.780017    61.714087    61.605178    68614.522 
23315000   -204515.86    1.6078074 0.0028147862    61.809503    61.559942    61.395666    68633.586 
23320000   -204473.65    1.6032045 0.0013285455    61.682109    61.582421     61.73541    68652.654 
23325000   -204378.14    1.5881383 -0.001734173    61.684927    61.795033    61.525826     68671.78 
23330000   -204380.89    1.6092236  0.001515539    61.814759    61.657756    61.622692    68690.804 
23335000   -204413.04    1.5700705 -0.0020703227    61.806619    61.745293    61.554731    68709.824 
23340000   -204542.22    1.5899155 0.00042045348    61.746548    61.619424    61.573538    68728.859 
23345000   -204417.96    1.6000025 -0.0026220513     61.74104    61.637963    61.782205    68747.905 
23350000   -204278.65    1.5939431   0.00336976    61.939258    61.417423    61.715067    68766.917 
23355000   -204494.76    1.5808723 0.0042727024    61.627361    61.538458    61.694521     68785.91 
