LAMMPS (27 Oct 2021)
OMP_NUM_THREADS environment is not set. Defaulting to 1 thread. (src/comm.cpp:98)
  using 1 OpenMP thread(s) per MPI task
package gpu 0
package gpu 2 neigh no pair/only on
#Lammps gcmc code for electrolytes

## ----- Simulation times ----- ##
    variable t_nve      equal 50000             #nve/limit
    variable t_deform 	equal 50000            #nvt
    variable t_pressed 	equal 50000            #nvt
    variable t_relaxed 	equal 100000            #nvt
    variable t_eq 	equal 5000000           #nvt

    variable smallc	equal 10
    variable bigc	equal -80
    variable numB	equal 256
    variable numS	equal ${numB}*8
    variable numS	equal 256*8
#    variable numCl	equal ${numS}*${smallc}+${bigc}*${numB}

## ----- Environment setting ----- ##
    boundary p p p
    atom_style full

## ----- System Variables  ----- ##
    variable    ttemp       equal   1.6          	#reduced temperature
    variable    ppress      equal   0			#osmetic pressure
    variable    cutoff_pppm equal   28.3	        #cutoff for the real part of pppm
    variable	ipress      equal   0.1

    variable    bigd        equal   10                      #LJ sigmas
    variable    smalld      equal   2
    variable    d_bs        equal   0.5*(${bigd}+${smalld})
    variable    d_bs        equal   0.5*(10+${smalld})
    variable    d_bs        equal   0.5*(10+2)

    variable    cut_small   equal   ${smalld}*1.122462	    #cutoffs for LJ
    variable    cut_small   equal   2*1.122462	    
    variable    cut_big     equal   ${bigd}*1.122462
    variable    cut_big     equal   10*1.122462
    variable    cut_bs      equal   ${d_bs}*1.122462
    variable    cut_bs      equal   6*1.122462


## ----- Initialization and grouping ----- ##
    read_data config_fcc8.dat
Reading data file ...
  triclinic box = (-80.000000 -80.000000 -80.000000) to (80.000000 80.000000 80.000000) with tilt (0.0000000 0.0000000 0.0000000)
  2 by 2 by 2 MPI processor grid
  reading atoms ...
  2304 atoms
Finding 1-2 1-3 1-4 neighbors ...
  special bond factors lj:    0        0        0       
  special bond factors coul:  0        0        0       
     0 = max # of 1-2 neighbors
     0 = max # of 1-3 neighbors
     0 = max # of 1-4 neighbors
     1 = max # of special neighbors
  special bonds CPU = 0.012 seconds
  read_data CPU = 0.031 seconds

    set type 1 charge   ${bigc}    	#large NPs
    set type 1 charge   -80    	
Setting atom values ...
  256 settings made for charge
    set type 2 charge   ${smallc}       #small NPs
    set type 2 charge   10       
Setting atom values ...
  2048 settings made for charge
#    set type 3 charge   1       #Na+
#    set type 3 charge   -1      #Cl-

    mass    *   0.2
    mass    1   25.0

    group big       type 1
256 atoms in group big
    group small     type 2
2048 atoms in group small
#    group cation    type 3
#    group anion     type 3

## ----- Interaction setting ----- ##
    pair_style lj/cut/coul/long ${cut_big} ${cutoff_pppm} #lj/cut/coul/long/soft 2.0 0.5 5.0 ${cut_small} ${cutoff_pppm}
    pair_style lj/cut/coul/long 11.22462 ${cutoff_pppm} 
    pair_style lj/cut/coul/long 11.22462 28.3 
    #Between regular particles (4*5/2=10)
    pair_coeff  1   1   2.0     ${bigd}     ${cut_big}	        # big-big
    pair_coeff  1   1   2.0     10     ${cut_big}	        
    pair_coeff  1   1   2.0     10     11.22462	        
    pair_coeff  2   2   2.0     ${smalld}   ${cut_small}	    # small-small
    pair_coeff  2   2   2.0     2   ${cut_small}	    
    pair_coeff  2   2   2.0     2   2.244924	    
    pair_coeff  1   2   2.0     ${d_bs}     ${cut_bs}	        # big-small
    pair_coeff  1   2   2.0     6     ${cut_bs}	        
    pair_coeff  1   2   2.0     6     6.734772	        
    pair_modify shift yes
    kspace_style	pppm	5.0e-4

## ----- Simulation setup ----- ##
    neighbor 1.2 bin
    neigh_modify delay 0 every 1 check yes #one 2000

    compute temp all temp
    compute press all pressure temp

    thermo 5000
    thermo_style custom step pe temp c_press lx ly lz cpu
    thermo_modify norm no flush yes

   # dump moldump all custom 50000 ${xyzname} id type q x y z

## ----- Thermalization of system ----- ##
    timestep 0.0002

    fix 1 all nve/limit 0.05
    fix 2 big langevin ${ttemp} ${ttemp} 0.2 ${rseed1}
    fix 2 big langevin 1.6 ${ttemp} 0.2 ${rseed1}
    fix 2 big langevin 1.6 1.6 0.2 ${rseed1}
    fix 2 big langevin 1.6 1.6 0.2 6068
    fix 3 small langevin ${ttemp} ${ttemp} 0.008 ${rseed2}
    fix 3 small langevin 1.6 ${ttemp} 0.008 ${rseed2}
    fix 3 small langevin 1.6 1.6 0.008 ${rseed2}
    fix 3 small langevin 1.6 1.6 0.008 20688

    fix freeze big setforce 0.0 0.0 0.0
    fix zeromom all momentum 1 linear 1 1 1 angular
    run ${t_nve}
    run 50000

CITE-CITE-CITE-CITE-CITE-CITE-CITE-CITE-CITE-CITE-CITE-CITE-CITE

Your simulation uses code contributions which should be cited:

- GPU package (short-range, long-range and three-body potentials):

@Article{Brown11,
 author = {W. M. Brown, P. Wang, S. J. Plimpton, A. N. Tharrington},
 title = {Implementing Molecular Dynamics on Hybrid High Performance Computers - Short Range Forces},
 journal = {Comp.~Phys.~Comm.},
 year =    2011,
 volume =  182,
 pages =   {898--911}
}

@Article{Brown12,
 author = {W. M. Brown, A. Kohlmeyer, S. J. Plimpton, A. N. Tharrington},
 title = {Implementing Molecular Dynamics on Hybrid High Performance Computers - Particle-Particle Particle-Mesh},
 journal = {Comp.~Phys.~Comm.},
 year =    2012,
 volume =  183,
 pages =   {449--459}
}

@Article{Brown13,
 author = {W. M. Brown, Y. Masako},
 title = {Implementing Molecular Dynamics on Hybrid High Performance Computers – Three-Body Potentials},
 journal = {Comp.~Phys.~Comm.},
 year =    2013,
 volume =  184,
 pages =   {2785--2793}
}

@Article{Trung15,
 author = {T. D. Nguyen, S. J. Plimpton},
 title = {Accelerating dissipative particle dynamics simulations for soft matter systems},
 journal = {Comput.~Mater.~Sci.},
 year =    2015,
 volume =  100,
 pages =   {173--180}
}

@Article{Trung17,
 author = {T. D. Nguyen},
 title = {GPU-accelerated Tersoff potentials for massively parallel Molecular Dynamics simulations},
 journal = {Comp.~Phys.~Comm.},
 year =    2017,
 volume =  212,
 pages =   {113--122}
}

@Article{Nikolskiy19,
 author = {V. Nikolskiy, V. Stegailov},
 title = {GPU acceleration of four-site water models in LAMMPS},
 journal = {Proceeding of the International Conference on Parallel Computing (ParCo 2019), Prague, Czech Republic},
 year =    2019
}

CITE-CITE-CITE-CITE-CITE-CITE-CITE-CITE-CITE-CITE-CITE-CITE-CITE

PPPM initialization ...
  using 12-bit tables for long-range coulomb (src/kspace.cpp:340)
  G vector (1/distance) = 0.11279571
  grid = 60 60 60
  stencil order = 5
  estimated absolute RMS force accuracy = 0.0003775628
  estimated relative force accuracy = 0.0003775628
  using double precision KISS FFT
  3d grid and FFT values/proc = 42875 28800
  generated 0 of 1 mixed pair_coeff terms from geometric mixing rule
Neighbor list info ...
  update every 1 steps, delay 0 steps, check yes
  max neighbors/atom: 2000, page size: 100000
  master list distance cutoff = 29.5
  ghost atom cutoff = 29.5
  binsize = 14.75, bins = 11 11 11
  1 neighbor lists, perpetual/occasional/extra = 1 0 0
  (1) pair lj/cut/coul/long/gpu, perpetual
      attributes: full, newton off
      pair build: full/bin
      stencil: full/bin/3d
      bin: standard
Per MPI rank memory allocation (min/avg/max) = 11.95 | 12.05 | 12.16 Mbytes
Step PotEng Temp c_press Lx Ly Lz CPU 
       0 1.7992005e+08            0    175.78446          160          160          160            0 
    5000    -68340.56    1.4476734 -0.0043609882          160          160          160    40.011699 
   10000   -73864.159    1.4274286 -0.0044481547          160          160          160    79.969531 
   15000   -78332.702    1.4180784 -0.0044807237          160          160          160    119.87375 
   20000   -82147.614    1.4631728 -0.004502205          160          160          160     159.7897 
   25000    -85730.09    1.4438763 -0.0045468411          160          160          160    199.71682 
   30000   -89363.595     1.430693 -0.0045329494          160          160          160    239.68814 
   35000   -92657.824    1.4360348 -0.0045301784          160          160          160    279.63872 
   40000   -95446.147    1.3740366 -0.0044912268          160          160          160    319.60624 
   45000   -98043.305    1.4001758 -0.0043705458          160          160          160    359.57453 
   50000   -100736.54    1.4139939 -0.0042599172          160          160          160    399.47297 
Loop time of 399.473 on 8 procs for 50000 steps with 2304 atoms

Performance: 2162.849 tau/day, 125.165 timesteps/s
99.7% CPU use with 8 MPI tasks x 1 OpenMP threads

MPI task timing breakdown:
Section |  min time  |  avg time  |  max time  |%varavg| %total
---------------------------------------------------------------
Pair    | 9.4419     | 9.6089     | 9.8188     |   4.8 |  2.41
Bond    | 0.0072053  | 0.0077172  | 0.0087867  |   0.6 |  0.00
Kspace  | 382.7      | 383.5      | 384.18     |   2.1 | 96.00
Neigh   | 0.067399   | 0.076661   | 0.084972   |   2.3 |  0.02
Comm    | 2.2567     | 2.9835     | 3.6385     |  26.1 |  0.75
Output  | 0.00035727 | 0.00051608 | 0.0015988  |   0.0 |  0.00
Modify  | 2.757      | 2.7935     | 2.8331     |   1.7 |  0.70
Other   |            | 0.5066     |            |       |  0.13

Nlocal:        288.000 ave         316 max         260 min
Histogram: 2 0 0 1 0 2 1 0 1 1
Nghost:        1367.88 ave        1391 max        1341 min
Histogram: 1 0 0 2 0 2 1 0 0 2
Neighs:         0.00000 ave           0 max           0 min
Histogram: 8 0 0 0 0 0 0 0 0 0
FullNghs:      17421.0 ave       19991 max       14757 min
Histogram: 2 0 0 1 0 3 0 0 0 2

Total # of neighbors = 139368
Ave neighs/atom = 60.489583
Ave special neighs/atom = 0.0000000
Neighbor list builds = 70
Dangerous builds = 0

    fix deforming all deform 10 x final -33 33 y final -33 33 z final -33 33 remap x
    run ${t_deform}
    run 50000
PPPM initialization ...
  using 12-bit tables for long-range coulomb (src/kspace.cpp:340)
  G vector (1/distance) = 0.11279571
  grid = 60 60 60
  stencil order = 5
  estimated absolute RMS force accuracy = 0.0003775628
  estimated relative force accuracy = 0.0003775628
  using double precision KISS FFT
  3d grid and FFT values/proc = 42875 28800
  generated 0 of 1 mixed pair_coeff terms from geometric mixing rule
Per MPI rank memory allocation (min/avg/max) = 11.95 | 12.05 | 12.16 Mbytes
Step PotEng Temp c_press Lx Ly Lz CPU 
   50000   -100736.54    1.4139939 -0.0042599172          160          160          160            0 
   55000      -107277    1.4121963 -0.0039799595        150.6        150.6        150.6    43.201499 
   60000   -114345.42    1.4198011 -0.0040813318        141.2        141.2        141.2    86.443884 
   65000   -121800.97    1.4425257 -0.0039021771        131.8        131.8        131.8    129.60995 
   70000   -129966.36    1.4586721 -0.0040423193        122.4        122.4        122.4     172.7384 
   75000   -138356.25    1.3836508 -0.0023436797          113          113          113    215.76555 
   80000      -146883    1.4245538 0.0018591616        103.6        103.6        103.6    258.92885 
   85000   -155449.93    1.4691165   0.01168954         94.2         94.2         94.2     302.1513 
   90000    -163913.5    1.4050329  0.032607633         84.8         84.8         84.8    345.51387 
   95000   -172224.87    1.4831991  0.075745689         75.4         75.4         75.4    389.07367 
  100000   -182650.75    1.4448053    0.1624512           66           66           66     432.9602 
Loop time of 432.96 on 8 procs for 50000 steps with 2304 atoms

Performance: 1995.564 tau/day, 115.484 timesteps/s
99.6% CPU use with 8 MPI tasks x 1 OpenMP threads

MPI task timing breakdown:
Section |  min time  |  avg time  |  max time  |%varavg| %total
---------------------------------------------------------------
Pair    | 9.7898     | 10.029     | 10.276     |   5.8 |  2.32
Bond    | 0.00724    | 0.0079529  | 0.0086422  |   0.5 |  0.00
Kspace  | 384.41     | 385.04     | 385.4      |   1.5 | 88.93
Neigh   | 0.87022    | 0.956      | 1.0288     |   6.0 |  0.22
Comm    | 3.6642     | 4.2375     | 4.8709     |  20.1 |  0.98
Output  | 0.00039528 | 0.0052175  | 0.011662   |   5.5 |  0.00
Modify  | 27.014     | 29.704     | 32.02      |  34.0 |  6.86
Other   |            | 2.984      |            |       |  0.69

Nlocal:        288.000 ave         305 max         268 min
Histogram: 2 0 0 1 0 1 0 2 1 1
Nghost:        6164.25 ave        6189 max        6131 min
Histogram: 1 0 0 2 1 0 1 0 1 2
Neighs:         0.00000 ave           0 max           0 min
Histogram: 8 0 0 0 0 0 0 0 0 0
FullNghs:      247106.0 ave      263437 max      229602 min
Histogram: 2 0 0 1 0 1 1 1 1 1

Total # of neighbors = 1976850
Ave neighs/atom = 858.00781
Ave special neighs/atom = 0.0000000
Neighbor list builds = 330
Dangerous builds = 0

    unfix 1
#    unfix 2
    unfix freeze
    unfix deforming

    timestep 0.002

    fix 1 all   nph	            tri ${ipress} ${ipress} 1.0
    fix 1 all   nph	            tri 0.1 ${ipress} 1.0
    fix 1 all   nph	            tri 0.1 0.1 1.0
    run ${t_pressed}
    run 50000
PPPM initialization ...
  using 12-bit tables for long-range coulomb (src/kspace.cpp:340)
  G vector (1/distance) = 0.11896362
  grid = 32 32 32
  stencil order = 5
  estimated absolute RMS force accuracy = 0.00045532445
  estimated relative force accuracy = 0.00045532445
  using double precision KISS FFT
  3d grid and FFT values/proc = 9261 4096
  generated 0 of 1 mixed pair_coeff terms from geometric mixing rule
Per MPI rank memory allocation (min/avg/max) = 9.322 | 9.338 | 9.384 Mbytes
Step PotEng Temp c_press Lx Ly Lz CPU 
  100000   -182613.36    1.4448053   0.16405231           66           66           66            0 
  105000   -200261.22    1.6303878  0.099784383    61.784146     62.08757    61.721154    15.376597 
  110000   -202203.72    1.5626651  0.098035243    60.925723    61.006347    60.686751    31.050303 
  115000    -203466.2    1.6456626  0.092669408    60.311489    60.596578    60.200654    46.941114 
  120000   -204407.87    1.6250946   0.10350924     60.06982    60.098004    59.969998    62.931519 
  125000   -204805.09    1.6042022  0.095434733    59.989447    60.016555    60.027502    79.005735 
  130000   -204866.43    1.6273421   0.10069349    60.330334    59.849375    59.808659    95.010287 
  135000   -205196.31    1.6293059  0.092619701    59.956299    59.948991    60.097545    111.15299 
  140000   -205238.82    1.6061721   0.10552099    59.602492    59.939959    60.040394    127.15452 
  145000   -205314.95    1.5965871   0.10284846    59.804375    60.030731     59.84347    143.12786 
  150000   -205320.43    1.5967933   0.10571242    59.998068    59.594418    59.877465     159.0915 
Loop time of 159.092 on 8 procs for 50000 steps with 2304 atoms

Performance: 54308.330 tau/day, 314.284 timesteps/s
96.9% CPU use with 8 MPI tasks x 1 OpenMP threads

MPI task timing breakdown:
Section |  min time  |  avg time  |  max time  |%varavg| %total
---------------------------------------------------------------
Pair    | 18.459     | 20.749     | 23.744     |  42.6 | 13.04
Bond    | 0.0039284  | 0.0043257  | 0.0048556  |   0.5 |  0.00
Kspace  | 66.568     | 67.178     | 67.98      |   6.1 | 42.23
Neigh   | 14.467     | 14.88      | 15.339     |   8.1 |  9.35
Comm    | 6.1706     | 6.293      | 6.4056     |   2.9 |  3.96
Output  | 0.00033397 | 0.0004769  | 0.0014499  |   0.0 |  0.00
Modify  | 45.294     | 48.081     | 51.007     |  25.3 | 30.22
Other   |            | 1.906      |            |       |  1.20

Nlocal:        288.000 ave         291 max         281 min
Histogram: 1 0 0 0 1 0 0 0 4 2
Nghost:        7291.50 ave        7319 max        7268 min
Histogram: 1 0 1 1 2 1 1 0 0 1
Neighs:         0.00000 ave           0 max           0 min
Histogram: 8 0 0 0 0 0 0 0 0 0
FullNghs:      334648.0 ave      338389 max      326257 min
Histogram: 1 0 0 1 0 0 0 2 2 2

Total # of neighbors = 2677186
Ave neighs/atom = 1161.9731
Ave special neighs/atom = 0.0000000
Neighbor list builds = 1380
Dangerous builds = 0
    unfix 1
    fix 1 all   nph	            tri ${ipress} ${ppress} 1.0
    fix 1 all   nph	            tri 0.1 ${ppress} 1.0
    fix 1 all   nph	            tri 0.1 0 1.0
    run ${t_relaxed}
    run 100000
PPPM initialization ...
  using 12-bit tables for long-range coulomb (src/kspace.cpp:340)
  G vector (1/distance) = 0.11977717
  grid = 30 30 30
  stencil order = 5
  estimated absolute RMS force accuracy = 0.00045180718
  estimated relative force accuracy = 0.00045180718
  using double precision KISS FFT
  3d grid and FFT values/proc = 8000 3600
  generated 0 of 1 mixed pair_coeff terms from geometric mixing rule
Per MPI rank memory allocation (min/avg/max) = 9.744 | 9.765 | 9.775 Mbytes
Step PotEng Temp c_press Lx Ly Lz CPU 
  150000   -205320.48    1.5967933   0.10571073    59.998068    59.594418    59.877465            0 
  155000   -205464.66    1.5396357  0.097822343    59.955546    60.125366     59.85174    15.506075 
  160000   -205766.48     1.632736   0.08534871    60.026596     60.02973    60.070056    30.963741 
  165000   -205366.78    1.5785878  0.089360194     60.06091    60.231037    59.901723    46.307889 
  170000   -205795.72    1.5637373  0.075535772    60.328469    60.026111    60.130469    61.727474 
  175000   -205852.08    1.6137634  0.077278787    60.108115    60.290147    60.048816     77.24083 
  180000   -205776.85    1.5869527  0.070168696    60.425177    60.192898    60.185944    92.819869 
  185000   -205786.12    1.5849408  0.073542676    60.342062     60.24307    60.182996    108.20838 
  190000   -205750.86    1.5999492    0.0561066    60.623271    60.282256    60.430927    123.53235 
  195000   -205803.12    1.5973124  0.051498185    60.466793    60.261129    60.613797    139.01422 
  200000   -205608.08    1.6036136  0.050319398    60.444829    60.633488    60.530282    154.42517 
  205000   -205710.09     1.636194  0.049314414    60.559755    60.595851    60.482684    169.92196 
  210000   -205790.59    1.5848251  0.035951269    60.841287    60.665683     60.45715    185.30576 
  215000   -205608.09    1.5934832  0.024058311    61.031501     60.63472    61.020792    200.68964 
  220000   -205611.41    1.5779181  0.025766049    61.105393    60.630913    61.041265    216.15884 
  225000   -205778.51     1.621464  0.025204958    60.716582    60.863002    60.971238    231.46747 
  230000   -205551.04    1.5785371  0.015472161    61.092813    61.085392    60.886769    246.78252 
  235000    -205374.8    1.5909754  0.016757392    61.181489    61.203464    60.793842    262.12755 
  240000   -205306.34    1.5734497 0.0099983254    61.205052    61.357446    61.158913    277.52485 
  245000   -205231.04    1.5925377   0.00268787    61.257276    61.437818    61.235627    292.84694 
  250000   -204748.87    1.5945953 -0.00090340493    61.638605    61.348079    61.582238    308.08266 
Loop time of 308.083 on 8 procs for 100000 steps with 2304 atoms

Performance: 56088.821 tau/day, 324.588 timesteps/s
93.9% CPU use with 8 MPI tasks x 1 OpenMP threads

MPI task timing breakdown:
Section |  min time  |  avg time  |  max time  |%varavg| %total
---------------------------------------------------------------
Pair    | 56.358     | 64.464     | 71.528     |  63.7 | 20.92
Bond    | 0.0070569  | 0.0086376  | 0.0098044  |   0.9 |  0.00
Kspace  | 109.32     | 110.21     | 111.97     |   7.6 | 35.77
Neigh   | 30.189     | 30.862     | 32.172     |   9.7 | 10.02
Comm    | 12.463     | 12.711     | 12.975     |   4.2 |  4.13
Output  | 0.00065265 | 0.0009498  | 0.0029728  |   0.0 |  0.00
Modify  | 66.997     | 82.197     | 94.089     | 111.2 | 26.68
Other   |            | 7.632      |            |       |  2.48

Nlocal:        288.000 ave         298 max         283 min
Histogram: 3 0 2 0 1 0 0 1 0 1
Nghost:        7219.62 ave        7231 max        7201 min
Histogram: 1 0 0 0 1 2 1 0 0 3
Neighs:         0.00000 ave           0 max           0 min
Histogram: 8 0 0 0 0 0 0 0 0 0
FullNghs:      307422.0 ave      318310 max      301700 min
Histogram: 3 0 2 0 1 0 0 1 0 1

Total # of neighbors = 2459376
Ave neighs/atom = 1067.4375
Ave special neighs/atom = 0.0000000
Neighbor list builds = 2855
Dangerous builds = 0
    unfix 1

    timestep 0.001
    dump moldump all custom 10000 ${xyzname} id type q x y z vx vy vz
    dump moldump all custom 10000 r8T1.6_coulombic_.8.lammpstrj id type q x y z vx vy vz
    fix 1 all   nph                 tri ${ppress} ${ppress} 1.0
    fix 1 all   nph                 tri 0 ${ppress} 1.0
    fix 1 all   nph                 tri 0 0 1.0
    run ${t_eq}
    run 5000000
PPPM initialization ...
  using 12-bit tables for long-range coulomb (src/kspace.cpp:340)
  G vector (1/distance) = 0.11913688
  grid = 30 30 30
  stencil order = 5
  estimated absolute RMS force accuracy = 0.00048977342
  estimated relative force accuracy = 0.00048977342
  using double precision KISS FFT
  3d grid and FFT values/proc = 8000 3600
  generated 0 of 1 mixed pair_coeff terms from geometric mixing rule
Per MPI rank memory allocation (min/avg/max) = 11.01 | 11.04 | 11.05 Mbytes
Step PotEng Temp c_press Lx Ly Lz CPU 
  250000   -204748.98    1.5945953 -0.0009071486    61.638605    61.348079    61.582238            0 
  255000   -205102.66    1.5738151 0.0021770575    61.236369    61.594855    61.498672    14.304847 
  260000   -205155.93    1.5953223 0.00047505316    61.376439    61.474792    61.385276    28.595914 
  265000   -204944.86     1.636995 8.4624523e-05    61.574657    61.367017    61.544392     42.93047 
  270000   -204825.81    1.6158625 -0.0018480351     61.63066    61.562021    61.613902    57.291061 
  275000   -204977.83    1.5689598 -0.0030408718    61.446828    61.558325    61.534685    71.695148 
  280000      -205057    1.6203802 -0.0033506164    61.390262    61.624197    61.428697    86.102549 
  285000   -205165.66    1.5969165 -0.0096170615    61.307967    61.486729    61.569074    100.45472 
  290000   -205142.66    1.5277596 0.0062784783    61.191182    61.414814    61.463678    114.83243 
  295000   -205160.42    1.5686454 0.0056450288    61.300602    61.284167    61.402903     129.1287 
  300000   -205217.59    1.6211586 0.0014916669    61.244569    61.414699    61.446814    143.35865 
  305000   -205145.32    1.6403717 -0.0038550155    61.455892    61.404913    61.600553    157.74575 
  310000   -204964.83    1.6300767 0.0032864321    61.305503    61.527148    61.398379    172.19718 
  315000   -205033.23    1.5791461 -0.00087429398    61.506012    61.217218    61.601873    186.64369 
  320000   -205026.08    1.5598072 -0.0012172866     61.35515    61.421587    61.446865     200.9863 
  325000   -204940.81    1.6084653 -0.0030867833     61.49874    61.498016     61.56108    215.28351 
  330000   -205058.25    1.5896698 0.00016973042    61.601773    61.255778    61.348507    229.66228 
  335000   -204633.19    1.6129958 0.0025469927    61.408219    61.557913    61.600149    243.96886 
  340000   -204808.51    1.5769885 -0.0069217377    61.536045      61.7968    61.493016    258.40432 
  345000    -204814.3    1.6066047 -0.004390618    61.812103    61.531423    61.544314    272.69792 
  350000   -205033.73    1.5825808 0.0022391022    61.436924     61.56984    61.406338     287.0886 
  355000   -204980.77    1.5639669 -0.00062572212    61.487522    61.646999    61.361501    301.46239 
  360000   -204965.23    1.5825519 -0.0028394036    61.456315    61.494426    61.544475    315.78788 
  365000   -204969.91     1.614061 0.00019546586    61.374026    61.651978    61.328007    330.09932 
  370000   -205093.31    1.5962912 0.0010521405    61.576247    61.278554    61.478573    344.44129 
  375000   -205273.07    1.5809179 0.0034963108    61.470535     61.25503    61.418472    358.87777 
  380000   -204947.83    1.6190425 -0.0042384439    61.412461    61.647949    61.617763    373.21893 
  385000   -204991.24    1.5920789 0.0011563889    61.430196    61.245862    61.676598    387.48083 
  390000   -205126.32    1.6068723 0.0035458017    61.378964    61.295052    61.516101    401.86503 
  395000    -205006.9    1.5727919 -0.0076007854       61.663    61.480298    61.483119    416.23835 
  400000   -205225.97    1.6140904 -0.0023591093    61.446598    61.410443    61.473202    430.63405 
  405000    -205113.1     1.578243 -0.0012599894    61.532292    61.341606    61.616155    445.10955 
  410000    -204911.6    1.6099186 -0.00056407325    61.556146     61.60576    61.426081    459.48248 
  415000   -204972.14    1.5889172 0.0020696228     61.28147    61.678147    61.539478    473.81468 
  420000   -204752.81    1.5661096 -0.0065380874    61.786409    61.540557    61.628005    488.16852 
  425000   -204861.06    1.6660909 0.0018859448    61.431209    61.674085    61.561213    502.49592 
  430000   -204839.26    1.6112868 0.0012912342    61.366535    61.266525     61.83045    516.86701 
  435000   -205163.66    1.5664193 -0.0031156675     61.45222    61.486137    61.488156    531.17778 
  440000   -205033.84    1.6369328 -0.0023523163    61.361862    61.392898    61.742595    545.59238 
  445000   -204892.97    1.6540987 0.0033542071    61.310336    61.550793    61.641769    559.93949 
  450000   -204731.54    1.5906129 0.0014194047    61.585374    61.492462    61.649789    574.26527 
  455000   -204806.94    1.6008785 -0.0025320286    61.618155    61.554955    61.663178    588.67126 
  460000   -204765.25    1.6813322 -0.002744295    61.416499    61.622277    61.817097    603.05211 
  465000   -204669.35    1.6168067 -0.0034956794    61.532516    61.640282    61.731047    617.38561 
  470000    -204920.5    1.5974495 -0.0033631288    61.540482     61.66815    61.554677     631.7018 
  475000   -204795.77    1.6053782 0.0064689265    61.606989    61.315492    61.732176    646.04915 
  480000   -204646.07    1.5825332 -0.0014402574    61.635438    61.531672    61.666289    660.49514 
  485000    -204814.3    1.6006171 -0.0061343912    61.485098    61.483017    61.770511    674.94954 
  490000    -204951.4      1.58044 0.0027122479    61.423738    61.393565    61.632444    689.35403 
  495000   -204792.11    1.5877945 -0.00097622134    61.398172    61.793619    61.648476    703.74662 
  500000   -204852.93    1.6326361 0.0036858951    61.407039    61.611268    61.585879    717.94952 
  505000   -204872.12    1.5862141 -0.00072415993    61.415841    61.443131    61.898357    732.27773 
  510000   -204789.12    1.5885921 -0.0027047888    61.642616    61.638802    61.659748    746.70757 
  515000   -204673.04    1.5901063 -0.0037895791    61.464449    61.841115    61.501602    761.08004 
  520000   -204944.56    1.6405798 -0.0020230304    61.746454    61.411675    61.439835    775.41546 
  525000   -204893.23    1.5923926 0.00069556251    61.506969    61.574508    61.533894    789.79594 
  530000   -204942.23    1.5719017 -0.0011744108    61.571171    61.583915    61.494123    804.14657 
  535000   -204910.88    1.6152688 -0.0032192585    61.405636    61.474033    61.752728    818.48843 
  540000   -204920.32    1.6432988 -0.0013732378    61.683407    61.675995    61.316185    832.88266 
  545000    -204728.4    1.5544184 -0.0061091521    61.705053    61.555841    61.616732    847.23483 
  550000   -204796.66    1.5866571 -0.00065508418     61.64969     61.40286    61.434236    861.51347 
  555000   -204827.03    1.5965214 -0.0042637998    61.631363    61.636068    61.460209    875.90713 
  560000   -205004.05     1.617495 0.0061174196    61.495203    61.379866    61.295548     890.2869 
  565000   -204819.36    1.6043461 -0.0039948839    61.590501    61.640656    61.402116    904.71138 
  570000   -204933.04    1.5564543 0.0024122596    61.456222    61.427798    61.540216    919.09332 
  575000   -204991.04    1.6090678 0.0017507109    61.458383    61.453691    61.435831    933.45695 
  580000   -204906.02    1.6273883 0.00076418108    61.703162    61.357741    61.391304    947.76799 
  585000   -204921.09    1.5656808 0.00014816969    61.533181    61.493438    61.492581    962.16725 
  590000    -204872.3    1.6053123 -0.0046951968    61.673389    61.265563     61.90731    976.44331 
  595000   -204882.95    1.5993295 0.0027817819     61.48737    61.634345    61.443108    990.70218 
  600000   -204991.83    1.5949846 -0.0059379923    61.723952    61.357746    61.478214    1005.0392 
  605000   -204955.37    1.6285487 -0.0040355372    61.731028     61.45621    61.406511    1019.3288 
  610000   -204701.32    1.6240003 9.2256732e-05    61.675694    61.318487    61.794275    1033.6446 
  615000   -204916.75    1.6162778 0.00048282137    61.755072    61.330344    61.291224    1047.9351 
  620000    -204916.6     1.548208 -0.0024092014    61.435243    61.397449    61.776641    1062.3551 
  625000   -204959.85    1.5939865 -0.0022682317    61.636198    61.530667    61.539325    1076.7842 
  630000   -204696.33    1.6090597 0.00084164345    61.438595    61.688972    61.528889    1091.1308 
  635000   -204796.17     1.604569 0.0034810457    61.797677     61.42629    61.387305    1105.3272 
  640000   -204974.94    1.6153168 0.0016160349    61.528327    61.454261    61.379065    1119.6418 
  645000   -204614.59    1.6271188 -0.0036033855    61.692189    61.502093    61.573771    1134.0105 
  650000    -205172.8    1.6313205 -0.00082730526    61.606075    61.420915    61.289873    1148.4404 
  655000   -204999.74    1.6149064 0.0018058141    61.284274     61.70709    61.473966    1162.8352 
  660000   -205019.25    1.5843169 0.0013416714    61.558943    61.606575    61.235854    1177.1895 
  665000   -204985.18    1.6059326 -0.0020432678    61.457664    61.489964    61.559732    1191.4833 
  670000   -205063.56     1.585606 0.0076792488     61.11263    61.412679    61.561419    1205.7936 
  675000   -204932.69    1.5774073 0.0030605348     61.28066    61.729594    61.348525     1220.102 
  680000   -205122.27    1.5782879 -0.00088020098    61.504338    61.454847    61.284578    1234.4247 
  685000   -205010.85    1.5700421 -0.001493498    61.585929    61.354746    61.549872    1248.8416 
  690000    -204984.7    1.6272106 -0.0025623849      61.6505    61.442451    61.390069    1263.2558 
  695000   -204860.81    1.6009247 -0.0056105381    61.554955    61.620309    61.568605    1277.6778 
  700000   -205055.26    1.6166237 0.0017056776    61.180991    61.509359    61.735703    1292.0737 
  705000   -205089.91    1.5565863 0.0059639774    61.483173    61.307373    61.474043    1306.3528 
  710000   -205180.99    1.6085621 0.0035222365    61.436541     61.33663    61.495901    1320.6806 
  715000   -205177.81    1.5742132 -0.0059689431    61.519953    61.442545    61.617303    1335.0121 
  720000   -205116.99    1.6053941 -0.0020702332    61.586776    61.418774    61.569509    1349.4367 
  725000   -205225.65    1.5949598 0.0013765636    61.382392    61.250229    61.658024    1363.8445 
  730000   -205082.43    1.5994291 -0.0033832204    61.373685    61.486721    61.692829    1378.2682 
  735000   -204971.26    1.5992799 -0.0036866334    61.664186    61.501742     61.48727    1392.6166 
  740000   -204991.61     1.638423 0.0016928475    61.517495    61.488865    61.394829    1406.9405 
  745000    -205105.8    1.5836791 0.0021242097    61.312554    61.484859    61.531435    1421.2672 
  750000   -204976.27    1.6102726 -0.0019680911    61.459688     61.61255    61.499687    1435.5289 
  755000    -204902.7    1.6125064 0.0050377607     61.35258    61.644733    61.501612    1449.8632 
  760000   -205031.67    1.6486875 -0.0027007329    61.500254    61.525763     61.51339    1464.2395 
  765000   -204946.07    1.6098626 -0.0066721657    61.735171     61.61908    61.535553     1478.558 
  770000   -205015.22     1.613253 -0.0001790971    61.615196    61.333815    61.664238    1492.9166 
  775000   -204837.97    1.6113435 -0.002461624    61.664801    61.594541    61.475339    1507.3025 
  780000   -204871.26    1.6325601 -0.0044206468    61.754323    61.149059    61.666058    1521.6195 
  785000    -204854.2    1.5617678 0.0005060342    61.357086    61.507393    61.651582     1535.835 
  790000   -204904.51    1.5763666 0.0025102713    61.516252    61.370248    61.511207    1550.1992 
  795000   -204754.93    1.5925218  0.001053227    61.561577    61.488062    61.452619    1564.4812 
  800000   -204959.69    1.5839279 0.0022883108    61.311431    61.527117    61.466982    1578.8728 
  805000   -204971.01    1.5801168 0.0011610986    61.376774     61.55758    61.500694    1593.1748 
  810000   -204723.12    1.5761388 -0.00039629235    61.785224    61.386732    61.429051    1607.6409 
  815000   -204723.04    1.5865655 -0.0015903711    61.419014    61.568907    61.648739    1622.0407 
  820000   -205016.54    1.5837864 1.4518881e-05    61.425151    61.575533    61.547825    1636.3459 
  825000   -205097.69    1.6191957 -3.7819634e-05    61.349731    61.479656    61.502742    1650.6794 
  830000   -205002.95    1.5756107 -0.0015020806    61.568876    61.417401     61.41939     1665.127 
  835000   -205003.01    1.6418624 -4.9733301e-05    61.512449    61.533515    61.391254    1679.4904 
  840000   -204922.92    1.6125754 -0.0020659262    61.625686    61.504438    61.416361    1693.9169 
  845000   -204969.59    1.6062903 0.0037906286    61.570477    61.493488     61.24514    1708.2297 
  850000   -205009.18    1.5731975 0.00031947131    61.470448     61.48606    61.529717    1722.5672 
  855000   -205032.67    1.6081445 0.0010593883    61.461757    61.434542    61.415604    1736.8146 
  860000   -205365.74    1.5329752 -0.0070666297    61.493386    61.601036    61.213019    1751.1186 
  865000   -205035.74    1.5865634 0.0015862028     61.30524    61.358789    61.524294    1765.4228 
  870000   -205039.59    1.5707069 -0.0017379705    61.456424    61.521164    61.372575    1779.7453 
  875000   -205144.68    1.6237606 0.0015981691    61.429586    61.233051    61.738603    1794.0004 
  880000   -204900.25    1.5496431 -0.0017428936     61.35431    61.738646    61.614477    1808.3646 
  885000   -204960.76    1.6039944 0.0070995737    61.495598    61.554196    61.266937    1822.6966 
  890000   -205066.32    1.6193952 -0.001318247    61.643225    61.440937    61.328406    1837.0121 
  895000   -205054.15    1.6225799 -6.5549812e-05    61.435073    61.439948    61.589505    1851.4001 
  900000   -205000.35    1.5905051 -0.00011826407    61.340604    61.401623    61.611942     1865.709 
  905000   -205199.28    1.5884561 0.0094634951    61.152153    61.412971    61.321369    1879.9849 
  910000   -205034.22    1.6399172  0.004346069    61.533402    61.541009    61.197085    1894.3257 
  915000    -205028.6    1.6324582 -0.0025032874    61.417097    61.587045    61.448434    1908.6743 
  920000    -204959.4    1.6125881 0.0050506855    61.424695    61.479001    61.514641    1922.9909 
  925000   -205037.06    1.5897897 -0.005312317    61.476767    61.409859    61.663974    1937.3495 
  930000   -204988.94    1.5441719 0.0030644062    61.420778    61.443806    61.496186    1951.6954 
  935000   -204810.81    1.6335943 0.0039007823    61.414319     61.36615    61.548284    1965.9773 
  940000   -204990.35    1.5673785 0.0066083538    61.328133    61.587652    61.117724    1980.3109 
  945000   -204924.47     1.546961 0.00035343344    61.495531     61.45338    61.616148     1994.671 
  950000   -204851.08    1.5882445 -0.00014601487    61.380984    61.711823    61.564407    2009.0454 
  955000   -204825.24    1.6009836 -0.0020388273    61.697931     61.37724    61.580561    2023.3526 
  960000   -204945.38    1.5890712 -0.0012034088    61.480572    61.563782    61.572665    2037.6486 
  965000   -204743.09    1.5824771 0.0031847344    61.650116    61.487783    61.508697    2051.9479 
  970000   -204851.37    1.5843184 -0.00069532073    61.625264    61.658481    61.314908     2066.269 
  975000   -204951.45    1.6132493 0.00010118614    61.479227    61.557773    61.452948    2080.6249 
  980000    -205061.7    1.5477759 -0.0014769441    61.474422    61.390171    61.430168    2094.9459 
  985000   -204987.74    1.6234495 0.00013817047    61.383117    61.500586    61.513087    2109.3376 
  990000   -204815.63    1.5738319 -0.00023790469    61.531773    61.414536    61.598558    2123.6475 
  995000   -204651.31    1.6191318 -0.0003529022     61.41498    61.582498     61.72277    2138.0533 
 1000000   -204863.57    1.5873915 0.0067367828    61.665443    61.090384    61.517566    2152.3536 
 1005000   -204475.31    1.5597864 -0.0010178447    61.871271    61.424508    61.589519    2166.6427 
 1010000   -204681.41    1.5978189 0.0038197349    61.472562    61.577855    61.521682    2181.0463 
 1015000   -204778.24    1.5880847 0.0015940875    61.385682       61.405    61.729586    2195.3872 
 1020000   -204824.71    1.5815888 -0.0043989961    61.368809    61.631564    61.624407    2209.6573 
 1025000    -204675.5    1.5975828 0.0027122698    61.474731    61.436403     61.55221    2223.9325 
 1030000   -204888.92    1.5478596 0.0042239308    61.712095    61.261105    61.305558    2238.2739 
 1035000    -205020.6     1.560344 0.0017970169    61.204877    61.573384    61.357914    2252.5628 
 1040000   -204713.83    1.6602949 0.00098551575    61.327605    61.593392    61.593435    2266.9106 
 1045000   -204930.53    1.6382042 0.0010421454    61.381485    61.572665    61.494279    2281.2554 
 1050000   -204837.13    1.6286133 -0.00082247296    61.478224    61.447779    61.611765    2295.6468 
 1055000   -205024.34    1.5751105 -0.0011736995    61.431666    61.636934    61.216158    2309.9268 
 1060000   -204784.74    1.5701721 -0.0077276601      61.8257    61.567196    61.515693    2324.2848 
 1065000   -204763.44    1.6168113 0.0042645828    61.642175    61.487378    61.338312    2338.6072 
 1070000    -204648.8    1.5632204 -0.0012419791    61.521198    61.365817    61.734582    2352.8939 
 1075000   -205006.05    1.6363687 0.00095031239     61.45094     61.43058    61.383855    2367.1775 
 1080000   -204900.09    1.5937427 0.00061817799    61.688102     61.58969    61.284871    2381.4448 
 1085000   -204744.35    1.6076254 0.0015984604     61.65088    61.471966    61.537665     2395.823 
 1090000   -204765.65    1.5627885 -0.0049940387    61.511534    61.615667    61.755792    2410.1207 
 1095000   -204788.93    1.5802209 0.0024326897     61.68851    61.456787    61.558794    2424.3536 
 1100000   -204568.45    1.5956219 -0.0027095884    61.760734    61.518806    61.715232    2438.6532 
 1105000   -204585.03    1.5953022 0.0011171931     61.82038    61.599103    61.454259     2453.003 
 1110000   -204718.84    1.5987527 -0.00053734052    61.637462    61.578424    61.648295    2467.2488 
 1115000   -204826.55    1.6213546 0.00044580648    61.585305    61.474552    61.601467    2481.6136 
 1120000   -204944.41    1.5623005 -0.0027310331    61.449599    61.430493    61.739002    2495.9431 
 1125000   -204748.75    1.5918879 -0.0085937197    61.614339    61.614726    61.616798     2510.184 
 1130000   -204917.85    1.5798594 0.0021768238    61.454495    61.375509    61.398489    2524.4856 
 1135000   -204742.02    1.5837422 -0.0023638311    61.736524    61.250642    61.535785    2538.9216 
 1140000   -204872.93      1.60265  0.005709582    61.297718    61.184904    61.705772     2553.192 
 1145000   -204773.38    1.6504301 -0.0041048856    61.732216    61.394633    61.736996     2567.448 
 1150000   -204645.11    1.5667243 0.0042843458    61.670998    61.299447    61.396436    2581.7078 
 1155000   -204716.43    1.6213276 0.00092674047    61.590742    61.244779    61.608654    2596.0094 
 1160000   -204877.12    1.6110052 -0.001638146    61.668826    61.188229    61.639295    2610.3224 
 1165000   -204935.59    1.5825195  0.006256128    61.660816    61.317052     61.21727    2624.7044 
 1170000   -204905.63    1.6027002 0.0005115501    61.459989    61.580812    61.444189    2639.0692 
 1175000   -204842.04    1.5809136 0.0012150318    61.303359     61.45153    61.762468    2653.4925 
 1180000   -204894.68    1.5969349 0.0001058129    61.575307    61.399913    61.482287    2667.8283 
 1185000   -204869.63    1.6039796 0.0010172144    61.408448    61.562302    61.450901    2682.1465 
 1190000    -204872.2    1.5667586 0.0011056175    61.378171    61.536759    61.514764    2696.4624 
 1195000   -204996.45    1.6135133 0.00081092288    61.397719    61.216896    61.766356    2710.7572 
 1200000   -205113.72    1.6397601 0.0054209961    61.257816    61.239288    61.567335    2725.0735 
 1205000   -204902.85    1.6124526 -0.00010696312    61.300402    61.483174     61.59435    2739.3946 
 1210000   -204916.89    1.6049116 0.00053774696    61.392577    61.524601    61.653503    2753.6656 
 1215000   -204847.91    1.6632807 0.00074121924    61.675616     61.27643    61.597112    2767.9435 
 1220000   -204799.33     1.572887 -0.0013572618    61.516624    61.783682    61.396888    2782.2147 
 1225000   -204799.66    1.6380145 0.0048858699    61.471511    61.611369    61.364312    2796.4925 
 1230000    -204676.6    1.6025797 0.0065635527    61.447676    61.398976    61.673005    2810.7438 
 1235000   -204814.57    1.6442825 -0.00089620085    61.532449    61.423417     61.78347    2825.1402 
 1240000   -204733.49    1.5997833 0.00068188807    61.382924    61.627135    61.626853    2839.3784 
 1245000   -204663.14    1.6778495 0.0042875077    61.697695     61.29163    61.560134    2853.8338 
 1250000   -204992.77    1.6000041 0.0067782142    61.337287    61.367889    61.505097    2868.1777 
 1255000   -204896.29    1.6062053 0.0025922699    61.307846    61.700689    61.372222    2882.5185 
 1260000   -205097.52    1.5911024 -0.0012906871    61.707336    61.349106    61.292107    2896.8931 
 1265000   -204835.04    1.6561453 0.00010348651    61.576725    61.357158    61.625485    2911.2514 
 1270000   -204672.61    1.5844314 -0.0012985516    61.327018      61.8035     61.54951    2925.6511 
 1275000   -204958.95    1.5824847 0.0030051736    61.282319    61.573954    61.510926    2939.9662 
 1280000   -205207.35    1.5894201  0.004026775    61.546589    61.211051    61.403277    2954.3282 
 1285000   -205161.84    1.6034631 -0.0043790637    61.660322    61.294467    61.474737    2968.6929 
 1290000   -205072.41    1.6117163 -0.00049870687    61.446814    61.680617    61.392505    2983.0213 
 1295000   -205114.94    1.6341091 0.00097319215    61.524176    61.574501    61.260557    2997.3294 
 1300000   -205156.93    1.6090739 0.0039991866    61.496722    61.184493    61.311258    3011.7805 
 1305000    -205033.5    1.6176056 -0.0018821057      61.3884    61.578111    61.458736    3026.0812 
 1310000   -205111.15     1.540052 0.0021035464    61.450724    61.265535    61.415683    3040.3984 
 1315000   -205168.48    1.6018373 -0.00057678333    61.523659    61.152282     61.62318    3054.7291 
 1320000   -204930.88    1.6179723 -0.00050145093     61.37594    61.453547    61.547608    3069.0316 
 1325000    -204975.2    1.5844173 0.0063100452     61.47429    61.471096     61.40727     3083.359 
 1330000   -205089.89    1.6126008 0.0029142111    61.461631    61.266672    61.656574    3097.7511 
 1335000   -204902.36    1.5999134 -0.0038089035    61.425834     61.80989    61.394768     3112.036 
 1340000   -204835.82     1.615578 -0.00082008029    61.462775    61.527964    61.555921    3126.3486 
 1345000   -204999.09    1.5896591 -0.0019328926    61.521892    61.479433    61.445572    3140.6272 
 1350000   -205046.42    1.5899483 0.00095514834    61.541435    61.455006     61.36267    3154.9914 
 1355000   -205303.38    1.6364589 0.0021305587    61.265088    61.317766    61.482409    3169.3106 
 1360000   -205276.45    1.6410568 -0.0053076394    61.527994    61.492974    61.443699    3183.7423 
 1365000   -205209.69    1.5766646 0.0054851687    61.323825    61.467535    61.111785    3198.1488 
 1370000   -205089.79    1.5372325 -0.0084585284    61.327455     61.49595    61.648886    3212.4611 
 1375000    -205008.2    1.5570511 0.0021927988    61.365026    61.302333     61.65988    3226.8351 
 1380000   -205083.48    1.5805993  0.004816033    61.283906    61.525782     61.39702     3241.194 
 1385000   -204918.34    1.6368089 -0.0097876866    61.803975    61.502019    61.543918    3255.5013 
 1390000    -205012.7    1.6097865 0.0033689423    61.569713    61.359454    61.404972     3269.729 
 1395000   -205027.37    1.6206447 0.0035965791    61.332486    61.376265     61.52491    3284.0049 
 1400000   -205012.63    1.6196473 -0.0032736271    61.526477    61.609935    61.377634    3298.3749 
 1405000   -205122.37    1.5991278 0.0023703087    61.465595    61.394018    61.334628    3312.6881 
 1410000   -204953.79    1.6287582 0.0027337627    61.365522    61.462896    61.503342    3327.0514 
 1415000   -205173.04    1.5836098 0.0053585305    61.211729    61.328004    61.394275    3341.4001 
 1420000   -205225.24    1.5756173 0.0013156913    61.106856    61.573287    61.406182    3355.6903 
 1425000   -205037.95    1.5704947   0.00396277    61.334532    61.258431    61.525816    3370.0529 
 1430000    -205076.7    1.6065402 -1.5674413e-06    61.433755    61.302613    61.528173    3384.4675 
 1435000    -204998.7    1.5534792 -0.0045395678     61.61026    61.512873     61.45246    3398.8783 
 1440000    -204885.1    1.6372293 0.0051009534    61.543006    61.541861     61.38947    3413.1569 
 1445000   -205043.39    1.5904375 0.00086598904    61.653369    61.239244    61.334907    3427.5062 
 1450000   -204762.29    1.5891188 -0.0016052844    61.554589    61.634904    61.512117    3441.8219 
 1455000   -204913.52    1.5818171 0.0018483528    61.243426    61.603311    61.692154    3456.1149 
 1460000   -205085.72    1.6292175 -0.00075292172    61.457463    61.535339    61.503785    3470.4965 
 1465000   -204964.17    1.6192716 -0.0024752004    61.555278    61.575224    61.634558    3484.8173 
 1470000   -204908.32    1.5706232 -0.00072404281     61.50619    61.501406    61.592584    3499.0824 
 1475000   -205032.15    1.5880577 0.00067014753    61.556429    61.495428    61.389284    3513.4318 
 1480000   -204952.63     1.608174 0.0052092508    61.429881    61.422948    61.320065    3527.7427 
 1485000   -204975.22    1.6245338 0.00074237932    61.450513    61.225527     61.73122    3542.0797 
 1490000   -205004.79    1.6183915 -0.0016544082    61.562096    61.629004    61.353756    3556.3898 
 1495000   -204986.04    1.5603158  0.002719761    61.426993    61.466439     61.45546    3570.6748 
 1500000   -205164.03    1.6438056 6.7371813e-05    61.182518    61.550532    61.707924    3585.0053 
 1505000   -204843.51    1.5999334 -0.0044819357    61.828235    61.467699    61.523498    3599.2966 
 1510000   -204873.44    1.6088159 -0.0013115688    61.568472    61.457962    61.598289    3613.6863 
 1515000   -204884.74    1.5564911 0.0020470153    61.517689    61.526389    61.431248    3628.0732 
 1520000   -204954.18     1.584728 0.0024282913    61.483435    61.640348    61.440858    3642.3361 
 1525000    -204911.1    1.5950533 -0.0041811923    61.559433    61.420503    61.651135    3656.5501 
 1530000   -204929.49    1.6079698 -2.401052e-06    61.671237    61.277847    61.564689    3670.8887 
 1535000   -204981.38    1.5933738 0.0040344242    61.227713    61.278854    61.769781    3685.2336 
 1540000   -205079.32    1.6185338 0.0033350799    61.346534    61.176751    61.481494    3699.5615 
 1545000   -205070.32     1.574931 -0.0012901716    61.653339    61.323325    61.438992    3713.8464 
 1550000   -205054.62    1.6440061 -0.00032304824     61.55918    61.450185    61.430148    3728.2821 
 1555000   -204902.15    1.5865852 0.00047879398    61.766576    61.473542    61.396575    3742.6753 
 1560000    -205024.4    1.6263522 -0.0034099203    61.516098    61.639278    61.486967      3756.97 
 1565000   -204951.88    1.5602844 0.00084347464    61.681329    61.601287     61.27233     3771.315 
 1570000   -204717.51    1.6519455 0.0036499301    61.417533    61.646252    61.587453    3785.6871 
 1575000   -204780.79    1.5984808 0.0069152022    61.475799    61.615416    61.480036    3800.0115 
 1580000   -204713.82    1.5878467 -0.0028836556    61.652674    61.715192    61.531604    3814.3085 
 1585000   -204779.78    1.5761082 0.0088299409    61.407997    61.457486    61.569022    3828.6127 
 1590000    -204954.3    1.5974251 0.0022079312    61.495494    61.416275    61.466793     3842.889 
 1595000    -204977.5     1.564524 -0.0042138079    61.557156    61.665326    61.199371    3857.2262 
 1600000   -204738.15    1.6388805 0.00057598353    61.356233    61.572277    61.431959    3871.4922 
 1605000    -204925.6     1.540092 -0.004975093    61.654151    61.424315    61.398374    3885.8283 
 1610000   -204660.81    1.6288501 -0.0038827418    61.644809    61.579679    61.538601    3900.2154 
 1615000   -204899.97    1.6063758 -0.00033638421    61.540291    61.702956    61.462943    3914.5234 
 1620000   -204723.01    1.6299612   0.00240784    61.490714    61.661012    61.407878    3928.8676 
 1625000   -204762.04    1.5868066 -4.2380764e-05    61.254047    61.628299    61.637786    3943.1356 
 1630000   -204773.79    1.6081344 0.0019222463    61.549593    61.482251    61.464972    3957.4811 
 1635000   -204559.92    1.6265325 0.00018673873    61.558309    61.515673    61.634662    3971.8959 
 1640000   -204691.45    1.6252658 -0.0041467519    61.669566    61.668957    61.460568    3986.2371 
 1645000   -204625.43    1.6093469 0.0054372709    61.519019    61.370521    61.560597     4000.603 
 1650000   -204761.77    1.6149405 0.0073277522    61.335788    61.453788     61.55484    4014.8708 
 1655000   -204694.43    1.5324536 0.00043468757    61.412204     61.70331    61.500362    4029.1001 
 1660000   -204665.93     1.585761 0.0049892014    61.531218    61.388415    61.652432    4043.3681 
 1665000   -204718.49    1.5848351 -0.0031656513    61.516949    61.425034    61.911237    4057.6251 
 1670000   -204905.01    1.5963091 0.0018786209    61.468668    61.446005    61.640527    4071.8965 
 1675000    -204904.9    1.5940274 0.0064900803    61.454503    61.560736    61.425661    4086.1725 
 1680000   -205125.01    1.6328324 3.2379678e-05    61.433116    61.228263    61.576204      4100.51 
 1685000    -205032.4    1.6116612 -0.001641694    61.423475    61.329653    61.669776    4114.8097 
 1690000   -205082.93    1.5307644 0.00032824152    61.321879    61.343848    61.662442    4129.1347 
 1695000   -204879.12    1.5826154 -0.0029292378    61.559767    61.736531    61.276017    4143.5819 
 1700000   -205053.42    1.6059509 -6.1347342e-05    61.433525    61.567076    61.408877    4157.9589 
 1705000   -204885.28    1.5646664 -0.0029927558    61.543716    61.440473    61.567898    4172.3401 
 1710000      -204785    1.6077327 -0.0077203463    61.604095    61.726141    61.600594    4186.7318 
 1715000   -205026.15    1.6076914 0.0035824711      61.6378    61.499494    61.283388    4201.0709 
 1720000    -204830.5    1.5901738 0.0025903879    61.479158    61.548742    61.546196     4215.414 
 1725000   -204891.55    1.5949463 0.00028751892    61.109237    61.857914    61.631288    4229.6869 
 1730000   -204863.06      1.59819 0.00036114514    61.387547    61.689589    61.401398    4244.0552 
 1735000   -204848.74    1.6225914  0.002451625    61.377921    61.463836    61.558288    4258.3374 
 1740000   -204919.32    1.5677223 0.0033912406    61.333376    61.552752    61.437069    4272.5977 
 1745000   -204941.66     1.611858 0.0020860263    61.566438    61.444317    61.316018    4286.8915 
 1750000   -204975.18    1.5740357 -0.0054062145     61.55189    61.540933    61.444476    4301.2216 
 1755000   -204748.87    1.6074846 0.0034010293    61.444767    61.707125    61.338552    4315.5179 
 1760000   -204939.89    1.5651795 -0.0013882402    61.480588     61.43066    61.456673    4329.8124 
 1765000   -204961.24    1.6060582 0.0032811581    61.517649     61.65948    61.264367    4344.0856 
 1770000   -204742.18    1.6273058 0.0010359851     61.92478    61.681174    61.039922    4358.2863 
 1775000   -204791.07    1.6281495 0.00055527774    61.678757    61.633785    61.335184    4372.5767 
 1780000   -204942.05    1.6534213 0.00059695734    61.656432    61.430298    61.449642     4386.808 
 1785000   -205062.46    1.6372262 0.00059821108     61.47998    61.497765    61.583816    4401.1393 
 1790000   -205016.18    1.6107654 3.4024629e-05    61.603489    61.482607    61.396884    4415.4388 
 1795000   -204824.33    1.5543491 -0.0028782506    61.413591    61.591635    61.692709    4429.7555 
 1800000    -204846.3    1.5957438 -0.00077307985      61.5408    61.550073    61.553847    4444.0388 
 1805000   -204941.39    1.5536214 0.0049089663    61.377408    61.448302    61.386923    4458.3253 
 1810000   -204955.65    1.5884864 -0.0018415432    61.261615    61.580942    61.518601    4472.6544 
 1815000   -205059.51    1.5751875 0.00094560506    61.518101     61.25288    61.399465    4486.9725 
 1820000   -204989.95     1.563368 0.0021794865    61.563594    61.284576    61.462902     4501.371 
 1825000   -205253.82    1.6102504 0.0077222582    61.314948    61.206489    61.316971    4515.7596 
 1830000   -204860.07    1.6137741 0.0023609567    61.531942    61.383593    61.524541    4530.1514 
 1835000   -204860.21     1.611927 0.0039591977    61.925133    61.367845    61.137571    4544.4696 
 1840000   -204907.25    1.6334973 0.0020660072    61.539756    61.430022    61.466482    4558.8835 
 1845000   -204730.52    1.6222531 0.00092774105    61.514566    61.666083    61.559304    4573.2051 
 1850000   -204736.54    1.6276314 -0.00041131775    61.424969    61.637595    61.633599     4587.504 
 1855000   -204399.27    1.6401499 0.0018679861    61.547437    61.649359    61.754914    4601.7368 
 1860000   -204653.49     1.601749 0.0052794386    61.651351    61.391539    61.731619    4616.0523 
 1865000   -204616.73    1.5777249 -0.0060237999    61.610058    61.655526    61.623939    4630.2776 
 1870000   -204798.59    1.5796263 -0.0022897029    61.434454    61.446612    61.771854    4644.6834 
 1875000   -204608.38    1.5896859 -0.0052478334    61.697358    61.618951    61.703657    4658.9654 
 1880000   -204758.54    1.5909584 -1.3467681e-05     61.76434    61.346321    61.529734     4673.432 
 1885000    -205048.2    1.5958902 0.0038389194    61.376122    61.559578    61.428341     4687.827 
 1890000   -204869.64    1.6113235 -0.0022506683     61.34097    61.848105    61.377075    4702.1816 
 1895000   -205051.45    1.5670983 -0.0013105082    61.603857     61.35931    61.435308    4716.4664 
 1900000   -204924.96    1.6320062 0.0046900503     61.42523    61.449516    61.482826    4730.7888 
 1905000   -204850.46    1.5798899 0.0013329857    61.685035    61.334224    61.437309    4745.0429 
 1910000   -204910.89    1.6374384 -0.0018533658    61.319259    61.535287     61.56986    4759.3345 
 1915000   -204876.45    1.5867782 -0.0016682356    61.812405    61.232539    61.620434    4773.7909 
 1920000   -204920.53    1.6058287 0.0044469729    61.658027    61.434781    61.325952    4788.1999 
 1925000   -204864.94    1.6142651 0.0024271792    61.495927    61.652141    61.496855    4802.5329 
 1930000   -204945.97    1.6033302 -0.0012178083      61.5188    61.380315    61.728945    4816.8885 
 1935000   -204986.59     1.558342 -0.0034951613    61.296867    61.533184    61.636454    4831.1475 
 1940000    -204780.3    1.5764904 -0.0026240667    61.455351    61.812966    61.450727    4845.4859 
 1945000   -204943.95    1.6041998 -0.0017626839    61.632823    61.550181    61.406445    4859.8021 
 1950000   -204861.32     1.593226 0.0045897119     61.73748    61.453714    61.405246    4874.1204 
 1955000   -205060.63    1.6586232 0.0030094746    61.531275    61.235926    61.573727    4888.3805 
 1960000   -204885.72    1.6204399 -0.0026116287    61.687252    61.301069    61.590147    4902.7255 
 1965000   -204909.38    1.6017261 -0.0019459257    61.780634    61.351344    61.519765    4917.1366 
 1970000   -204931.75    1.5823764 -0.0029182267    61.655279    61.352776    61.602405    4931.4178 
 1975000   -205115.67    1.6467891  0.004102558     61.38674    61.359672    61.375367    4945.7217 
 1980000    -205105.9     1.590157 0.0021737021    61.430066    61.343499    61.454914    4960.1095 
 1985000   -204945.35    1.5770317  -0.00595301    61.474567     61.39628    61.618778    4974.4453 
 1990000   -205006.95    1.6585307 0.0022672227    61.500095    61.273642    61.588614    4988.7714 
 1995000   -205073.33    1.6098923 0.00046982679    61.332561    61.467155    61.584422     5003.151 
 2000000   -204991.42    1.5826363 -0.0030439918    61.601103     61.43973    61.367565    5017.4019 
 2005000   -204985.59     1.616519 -0.0042400152    61.649068    61.535664    61.571055    5031.7302 
 2010000   -204922.17    1.6215759 -0.00032806236    61.524825    61.307601    61.601236    5045.9731 
 2015000   -204974.62    1.5983286 0.0052244443    61.397907    61.402095    61.369465    5060.2787 
 2020000   -204873.64    1.6043906 0.0039376239    61.333031    61.420095    61.688836    5074.6705 
 2025000   -204838.85    1.5745776 -0.003071142    61.467476    61.579031    61.508038    5088.9624 
 2030000   -204941.48    1.5936896 0.0012744843    61.492614    61.576528    61.402116    5103.2352 
 2035000   -204816.23    1.6194201 -0.00067708754     61.58257    61.300769     61.78325    5117.5501 
 2040000   -204720.33    1.5589802 -0.0016370311    61.505072    61.475586    61.713892    5131.8135 
 2045000   -205186.53     1.547902 -0.0042892266    61.399779    61.552657    61.525722    5146.1913 
 2050000   -204994.14    1.6252888 -0.0025964324    61.637433    61.218073    61.593705    5160.5887 
 2055000   -205130.43    1.6019158 -0.0018077497    61.316642    61.745116    61.405082    5174.9236 
 2060000   -205060.01    1.6003312 -0.00022596102    61.431642    61.424487    61.522878     5189.244 
 2065000   -205073.38    1.6392844 -0.00086596907    61.350698    61.456366    61.590868    5203.6638 
 2070000   -205038.13    1.6116457 0.0033942185    61.446215    61.469429    61.353122    5218.0094 
 2075000   -205050.49    1.6135814 0.0029880498    61.491022    61.526946     61.36878    5232.3455 
 2080000   -204877.43    1.5438458 0.0012629867    61.313944    61.465039    61.752294    5246.7452 
 2085000   -205072.26    1.6488285 0.0038239305    61.280571    61.556424    61.395334    5261.0966 
 2090000   -204879.96    1.5878241 -0.0024816186    61.461975    61.405693    61.678919    5275.4263 
 2095000   -204885.83    1.5861227 0.0027808959    61.500717    61.467871    61.390896    5289.7827 
 2100000   -204888.14    1.5854185 0.0038884676    61.485423    61.656607    61.490848    5304.0457 
 2105000   -204953.97    1.5749127 -7.0808467e-05    61.636782    61.521188     61.32567    5318.2634 
 2110000   -204825.24      1.61959 -0.0024614551    61.477471    61.564635    61.690151    5332.5143 
 2115000   -204771.82    1.5815323 -0.00016341706    61.352793    61.702484    61.618044    5346.8576 
 2120000   -204897.53    1.6584927 0.0047581621    61.433901     61.41548    61.540558    5361.1486 
 2125000   -204777.36     1.572012 -0.0044124872    61.470235    61.832797    61.521596    5375.5388 
 2130000   -204825.05    1.6119477 0.0064705301    61.597932    61.380363    61.439029     5389.893 
 2135000    -204650.9    1.5995225 -0.0086744241    61.719923    61.808133    61.547679    5404.1806 
 2140000   -204902.74    1.6521407 0.0014478927    61.720727    61.517972    61.467868    5418.4336 
 2145000   -204768.71    1.5886151 0.0018227929    61.585408    61.357099    61.712249    5432.8378 
 2150000   -204826.78    1.5894253 -0.0015358609    61.556083    61.633819    61.515166    5447.1784 
 2155000   -204877.73    1.6342639 -0.0020011117    61.411495     61.56982    61.457213    5461.5101 
 2160000   -204852.01    1.6075937 0.0062597404    61.619513    61.391002    61.467964    5475.9268 
 2165000   -205094.77     1.593719 0.0037994869    61.492487    61.461232    61.377595    5490.2714 
 2170000   -205049.39    1.6125074 -0.00078215391     61.64112    61.628079    61.355848    5504.6461 
 2175000    -205030.4    1.6300847 0.0017709413    61.596918    61.480132     61.41747    5519.0282 
 2180000   -204859.79    1.5708057 -0.00020116591    61.436004    61.853579    61.443347    5533.3808 
 2185000   -204874.16    1.6166388 0.0029525186    61.662012    61.446204    61.469607    5547.7552 
 2190000   -204890.58     1.570854 -0.0019355644    61.647707    61.362027    61.772738    5562.0433 
 2195000   -204847.76    1.5704171 -0.0009065531    61.763724    61.754236    61.261509    5576.3504 
 2200000   -204916.11    1.6115405 0.0033270701    61.647929    61.474165    61.381653    5590.6233 
 2205000   -204965.75    1.6015768 -0.0053477855    61.810907    61.807348    61.186691    5604.9131 
 2210000   -204880.16    1.5859972 -0.00032006795    61.702977    61.517577    61.357861    5619.2441 
 2215000    -204919.7    1.5645901 0.0019805151    61.537692    61.510441    61.434855    5633.6389 
 2220000   -205054.12    1.6242831 -0.0018364894    61.146169    61.729732    61.662503    5647.9748 
 2225000   -205092.17    1.6464807 3.7260935e-05    61.503939    61.417935    61.482264    5662.3841 
 2230000   -204911.87      1.64336 0.0035299238    61.144778    61.825781    61.611852    5676.8528 
 2235000   -204793.34    1.6040777 0.0033167396    61.498552    61.655432     61.40312    5691.1936 
 2240000   -204904.95    1.6074582 0.0023984272    61.625865    61.503669     61.28038    5705.5427 
 2245000   -204802.32    1.6409654 -0.00074314652    61.663776    61.493629     61.55435    5719.8849 
 2250000   -205074.75    1.6086381 -9.4937731e-05    61.470036    61.255494    61.760476    5734.3179 
 2255000   -205033.38    1.6059802 -0.0020122047    61.419153    61.639863    61.400113    5748.6451 
 2260000   -205066.88    1.5953722 0.00021178677    61.599781    61.384544    61.387142    5763.0105 
 2265000   -204948.65    1.6278416 0.0005565398    61.641295    61.519555    61.277761    5777.4664 
 2270000   -204965.97    1.5792607  0.004238631    61.464871    61.267454    61.549309    5791.7989 
 2275000   -205070.19    1.5748554 -0.0072251867    61.498337    61.509442    61.564585     5806.071 
 2280000   -204910.18    1.5806511 0.0010439218    61.808977    61.237172    61.513522    5820.3325 
 2285000   -205001.76    1.5799106 0.0030139291    61.641609     61.52687      61.3477    5834.6462 
 2290000   -204908.03    1.5726078 0.00080048631      61.4228     61.45533    61.631973    5849.0066 
 2295000   -205128.37    1.6383882 0.0016281391    61.376054    61.615474    61.441827    5863.3932 
 2300000   -205166.74    1.5761036 0.0036360192    61.546672    61.116768    61.630986    5877.7471 
 2305000   -204915.95     1.633242   0.00348581    61.543662    61.466294    61.507986    5892.0164 
 2310000   -205078.25    1.5845091 0.0015774831     61.45263    61.594381    61.280576    5906.3609 
 2315000   -204815.18    1.5679985 0.0043325051    61.723414    61.505988    61.299668    5920.6616 
 2320000    -204906.9    1.6353528 -0.0041748389    61.587626    61.600232    61.399611    5934.9367 
 2325000   -204745.44    1.6229416  -0.00153261    61.674768      61.3019    61.688489     5949.271 
 2330000   -205008.17      1.55556 0.00050757866    61.473209    61.629365    61.243267    5963.6451 
 2335000   -204883.39    1.5838769 0.0018724217    61.360882    61.726089    61.415126    5977.9708 
 2340000   -204846.55    1.6555067 0.0027317972    61.479014    61.526056    61.445038    5992.3817 
 2345000   -204737.17    1.5786334 -0.0021906928    61.593305    61.552171     61.48748    6006.6715 
 2350000   -205042.17     1.585538 -0.0036247551    61.573899    61.406591     61.50438    6021.0082 
 2355000   -205148.93     1.633921 -0.0018131339    61.426405    61.576313    61.426499    6035.2985 
 2360000   -205001.47    1.6793912 0.0016276511    61.378775    61.539955    61.319444    6049.6522 
 2365000   -205360.54    1.6182608 -0.0011967179    61.412562    61.473362    61.312108    6063.9144 
 2370000   -205074.52    1.5749472 6.3625903e-05    61.323605    61.556933    61.483156    6078.2369 
 2375000   -204986.29    1.6391055 0.0067306018    61.564329    61.441457    61.009071    6092.6065 
 2380000   -205148.67     1.643459 -0.0016870907    61.518085    61.528454     61.38468    6106.9798 
 2385000   -205060.44    1.5537633 -0.0011690843    61.623941    61.442271    61.218335    6121.3342 
 2390000   -205045.21    1.6078148 0.0050261577     61.37936    61.522975    61.407004    6135.6945 
 2395000   -204912.51    1.5699377 0.0028361762    61.344043    61.576879     61.44962    6150.0535 
 2400000   -205060.35    1.6076761 -0.0023980175     61.36483    61.664612    61.448557     6164.298 
 2405000   -204880.14    1.5843152  0.001171113    61.430833    61.566259     61.48735    6178.7119 
 2410000   -204897.15    1.5920951 0.0056180116    61.688172    61.425569    61.298463    6193.0556 
 2415000   -204827.57    1.6382622 -0.00054980872    61.623564    61.581373    61.460121    6207.4233 
 2420000   -204889.48    1.5950719 0.0015545338     61.50857    61.352689    61.635935    6221.7905 
 2425000   -204951.86    1.6269198 0.0013976067    61.391695    61.441051    61.557743    6236.0573 
 2430000   -205115.47    1.6121419 -0.0061802183    61.490105    61.685057      61.3071    6250.3361 
 2435000   -204917.15    1.6005898  0.000346617    61.404689    61.555702    61.484077    6264.5966 
 2440000   -205084.17    1.6157219  0.004314921    61.569118    61.147924    61.370529     6278.906 
 2445000   -204714.02    1.5734174 -0.0029561279    61.511068    61.579679    61.558946    6293.2432 
 2450000   -204977.46    1.5966964 -0.0017359582    61.694484    61.477165    61.320726    6307.5428 
 2455000   -204965.86    1.6474355 0.00038038927     61.48623    61.667782    61.409807    6321.9356 
 2460000   -204894.83    1.6439588 0.0093959163    61.202427    61.447967    61.624978    6336.2824 
 2465000   -204993.03    1.5580337 -0.0034228712    61.374152    61.697942     61.47211    6350.6378 
 2470000   -204835.64    1.5937355 -0.0043109704    61.732874    61.650737    61.464707    6364.9514 
 2475000   -204938.97     1.533187 0.0029248685    61.541832    61.252828     61.52899    6379.2797 
 2480000   -205057.96    1.6235803 -0.0023230974    61.470414    61.554347    61.383455    6393.6407 
 2485000   -204887.06    1.5999612 -0.0009960114    61.391809    61.611773    61.537737    6407.8847 
 2490000   -204998.68    1.6334178 -0.0022698818    61.596152    61.481466    61.557174    6422.2716 
 2495000   -205093.81    1.5823377 -0.0010771174    61.488729     61.47208    61.522296    6436.6787 
 2500000   -205164.32    1.6413234 -0.0013840921    61.324807    61.697419     61.36385    6450.9367 
 2505000   -205003.38    1.6203396 -0.0031064178    61.495106     61.56466    61.412142     6465.225 
 2510000   -204965.28    1.5656911 0.00030397107    61.593234    61.118341    61.570256    6479.4875 
 2515000   -205119.51    1.6197752  0.002136123    61.333672    61.190197    61.675353    6493.8485 
 2520000   -204864.99    1.6167198 0.0011869832    61.237324    61.633859     61.49619    6508.2683 
 2525000   -205122.82     1.623311 -0.0026474807    61.381448    61.565736    61.435201    6522.5655 
 2530000   -205187.52    1.5898445 -0.00055423906    61.398403    61.452448    61.402107    6536.9222 
 2535000   -205054.19    1.5780265 -0.0023806569    61.097879    61.667112    61.640339    6551.2895 
 2540000   -205107.57      1.63143 -0.0017862865    61.232557    61.391659    61.708805    6565.7013 
 2545000    -205154.1    1.5953807 0.0010040778    61.293719    61.502112     61.37026    6580.0749 
 2550000   -205333.49    1.5888589 -0.00079955957    61.529525    61.637226    61.186442    6594.4629 
 2555000   -205123.36    1.6094688 0.0029536813    61.476542    61.368872    61.463544    6608.7329 
 2560000    -205070.4    1.6188651 -0.0013983663    61.580951    61.416984    61.416733    6623.1177 
 2565000   -205018.35     1.586184 -0.0015438863    61.630792    61.613233    61.365353    6637.4105 
 2570000   -204986.47    1.6345997 0.0030997573    61.466993     61.51789    61.414972    6651.7768 
 2575000   -204845.18    1.6042188 0.0023981864    61.393901    61.563799     61.49543    6666.0492 
 2580000   -204911.36    1.6174681 0.0016191139    61.468953    61.598899      61.2439    6680.3563 
 2585000   -204891.99    1.5380426 1.851432e-05     61.21627    61.438363    61.543839    6694.6728 
 2590000   -205058.68    1.6059398 0.0015982422     61.26928    61.436509    61.594715    6709.0402 
 2595000   -204964.13    1.6346398 -0.00019058518    61.388908    61.563572    61.541479    6723.4733 
 2600000   -205107.79      1.64029 -0.0070210957    61.374786    61.637929    61.432892    6737.7824 
 2605000   -205189.38    1.6208984 0.0047577139    61.439122    61.025493    61.590968    6752.0747 
 2610000   -205172.46    1.5824867 0.0057892935    61.044585    61.366069    61.480715    6766.3939 
 2615000   -205036.99    1.5970863 -0.0073815906     61.95914    61.465725    61.435705    6780.7049 
 2620000   -204862.65    1.5873055 0.00079222413    61.649597    61.455396    61.445836    6795.0795 
 2625000   -204852.45    1.6021842 -0.00020400684    61.424323    61.644185    61.440732    6809.3515 
 2630000   -204823.36     1.576056 -0.0027349726    61.549367    61.389006    61.671389    6823.5923 
 2635000   -205089.68    1.6183621 0.0022687841    61.464583    61.546632    61.361645    6837.8435 
 2640000   -205057.16    1.6054191 0.00029416634    61.459119    61.415818    61.484221    6852.2139 
 2645000   -204827.95    1.6134061 -0.0040056461    61.485048    61.576967    61.649866    6866.5551 
 2650000   -205137.82    1.6175863 0.0025818713    61.460716    61.262321    61.512946    6881.0555 
 2655000   -205103.73     1.615266 -0.0044029793    61.490924    61.275175    61.658398     6895.446 
 2660000   -204958.42    1.5991382 0.0019975244    61.505534    61.645582    61.328654    6909.9131 
 2665000   -205044.18     1.600231 0.0014505177    61.435881    61.269691    61.662751    6924.2594 
 2670000   -205159.01    1.5704618 -0.00029052817    61.773274    61.116572    61.246581    6938.6119 
 2675000   -205039.38    1.5644664 0.0055927372    61.284821    61.402347    61.453523    6952.9639 
 2680000   -205033.32    1.6437459 -0.0012537033     61.35925    61.610083    61.400357    6967.2955 
 2685000   -204799.13    1.5995267 0.0050258479    61.466399     61.45624     61.48455    6981.5547 
 2690000   -204665.94    1.6193507 -0.00018113211    61.638485     61.72413    61.391465    6995.8193 
 2695000   -204794.69     1.592798 0.0018602315    61.672593    61.440841    61.535951    7010.1483 
 2700000   -204887.99    1.5658645  0.001823866    61.771059    61.463944    61.333327    7024.4427 
 2705000   -204784.92    1.6009952 -0.0066083184    61.511198    61.620588    61.778549    7038.7888 
 2710000   -204845.26    1.5656639 0.0025308671     61.57944    61.303591    61.681015    7053.1402 
 2715000   -204703.52     1.621902 0.0023947489    61.442025    61.742953    61.542985    7067.5162 
 2720000   -204739.81    1.5813343 -0.0014775031     61.56866    61.726883    61.447869    7081.7657 
 2725000   -204901.58    1.5573826 -0.0011442524    61.542634    61.448017    61.696458    7096.0963 
 2730000   -204919.19    1.6066336 0.00019331347    61.528588     61.28162    61.662457    7110.4238 
 2735000   -204875.23     1.628032 -0.0021038105    61.518111    61.585087    61.469863    7124.7187 
 2740000   -205120.23    1.6098905 -0.0033210966    61.585422    61.566902    61.343109    7139.0629 
 2745000   -205053.86    1.6351704  0.010051577      61.3199    61.344708    61.278388    7153.3576 
 2750000   -205019.53    1.6059151 0.0031914632    61.446643    61.457869    61.363598    7167.7539 
 2755000   -204874.92    1.6255749 -0.0037381734     61.72311    61.501622    61.475004    7182.0944 
 2760000   -204693.22    1.5532787 -8.3904973e-05    61.500662    61.490907    61.737048    7196.4684 
 2765000   -204715.32    1.5379198 8.7242975e-05     61.41997    61.583242     61.50576     7210.805 
 2770000   -204727.26    1.5582797 0.0066460094    61.346333    61.434583    61.488301    7225.0953 
 2775000   -204897.37    1.6188613 0.0028180269    61.607266    61.259326    61.549275    7239.3935 
 2780000   -204950.71     1.621667  0.002441403    61.361069    61.475893    61.641475    7253.7364 
 2785000   -204746.83    1.6074119 -0.001349349    61.445791    61.537123    61.663728     7268.019 
 2790000   -205181.64    1.5519299 -0.0039655719    61.613411    61.444319    61.320706    7282.3381 
 2795000   -204821.32    1.6285366 0.0010286573    61.627712    61.425275    61.415825    7296.6841 
 2800000   -204872.07      1.57498 0.0043912659    61.627151    61.411499    61.288326    7311.0426 
 2805000    -204769.8    1.5929806 8.7959045e-05    61.679775     61.67942    61.298992    7325.3637 
 2810000   -204939.19     1.617042 -0.0038333957    61.352718    61.428153    61.678858    7339.7445 
 2815000   -205136.51     1.668564 -0.00029262839    61.554036    61.422502    61.406139     7354.034 
 2820000   -204993.13    1.6028598 0.0044674724    61.618728    61.514972    61.287116    7368.3482 
 2825000   -204816.71    1.6137797 0.0053447311    61.431445    61.381182    61.659235    7382.6155 
 2830000   -204770.62    1.5851552 0.0068208107    61.531769    61.502817     61.48774    7396.8797 
 2835000   -204949.76    1.6200479 -0.0011964465    61.332976    61.693512    61.577152    7411.2879 
 2840000   -204952.75    1.5939915 0.0036466168    61.149871    61.740166    61.324595    7425.5953 
 2845000   -205039.41    1.5777203 -0.0041689654    61.507345    61.459406    61.623785    7439.8943 
 2850000   -205100.56    1.6151372 0.0032025667    61.646716    61.387385    61.380868    7454.2178 
 2855000   -204947.93     1.543882 -0.0035061162    61.459383    61.683037    61.585802    7468.6252 
 2860000   -204748.85    1.5722921 -0.001459303    61.646614     61.51039    61.490061    7482.8855 
 2865000   -204889.74    1.5917832 0.00095732012    61.593506    61.433247    61.478449    7497.3192 
 2870000   -204747.79    1.5535291 -0.0014753287    61.383186    61.598393    61.699427     7511.615 
 2875000      -204932    1.6536928 0.0033622022     61.87393    61.416744    61.224822    7525.9218 
 2880000    -204740.4    1.5917204 0.00077127637    61.442886    61.627544    61.551969    7540.2219 
 2885000   -204798.27    1.5955825 -0.0065270016    61.513645    61.773131    61.542084    7554.5506 
 2890000   -204796.82    1.6110557 0.0017592424    61.541225      61.4018    61.568667    7568.9544 
 2895000   -204797.56    1.6209928 -0.00053297764    61.478175    61.593435    61.541281    7583.2969 
 2900000   -204678.58    1.5757631 -0.0074203479    61.319783    61.856546    61.736587    7597.5772 
 2905000   -204753.46    1.6059186 -0.00099183986    61.282153    61.669392      61.5905    7611.8495 
 2910000   -204652.98    1.5511978 -0.0011770296    61.621133    61.367739    61.625458    7626.0475 
 2915000   -204676.83    1.6208842 -0.00021564378    61.667326     61.46872    61.627666     7640.309 
 2920000   -204539.92    1.6426909 -0.0052089569    61.864247    61.775939     61.43775    7654.5441 
 2925000   -204471.86    1.5923022 -0.0016367648    61.601914    61.466378    61.867467    7668.8195 
 2930000   -204683.89    1.5557388 -0.0028025832    61.500078    61.715737    61.519559     7683.124 
 2935000   -204763.84    1.5988792 0.0037435091    61.627634    61.422567    61.321762    7697.3961 
 2940000   -204682.89    1.5891384 -0.00043436453    61.483323    61.319915    61.786424    7711.6169 
 2945000   -204870.41     1.605369 0.0022693869    61.483823    61.434196    61.574782    7725.8994 
 2950000   -204881.77    1.5855235 0.0093102472     61.44569    61.172218    61.566713     7740.205 
 2955000   -204898.11    1.5835688 -0.0014021495    61.682402    61.668749    61.226863    7754.4174 
 2960000   -204837.94     1.573039 -0.0021645439    61.570129    61.786653    61.490252    7768.7337 
 2965000   -204808.87    1.6394086 -0.00031326736    61.669982     61.72575    61.307479    7782.9891 
 2970000   -204975.25    1.5814982 0.0040155891    61.356278    61.600607    61.485787    7797.2506 
 2975000   -205197.52    1.5734878 0.00028027984    61.265126    61.601239    61.447031    7811.4876 
 2980000    -205047.7    1.6137502 0.0048505655     61.51381    61.440329    61.315169    7825.8214 
 2985000   -204813.86    1.5530161 0.0038120853    61.269023    61.554047    61.714364    7840.3024 
 2990000   -205071.53     1.587139 0.0046552836    61.451875     61.48086    61.307584    7854.6163 
 2995000   -204874.02    1.5970681 -0.0010567422    61.632153     61.61937     61.42811    7868.9119 
 3000000   -204765.61    1.5979845 0.0015622309    61.607791    61.485354    61.524002    7883.2567 
 3005000   -204646.35    1.5905995 -0.0015849074    61.810067    61.487907    61.553974    7897.6281 
 3010000   -204619.61    1.6007949 -0.0024936012    61.697886    61.822398    61.378195    7911.8834 
 3015000   -204550.94    1.6069625 -0.0039885577    61.605253     61.58724    61.903822    7926.1258 
 3020000   -204650.01    1.6003658 0.0025695977      61.6551    61.751673    61.370823    7940.5211 
 3025000   -204764.21    1.5944948 0.0053969181    61.563485    61.404523    61.523878    7954.8948 
 3030000   -205031.75    1.6150615 -0.0026683175    61.495389    61.318671    61.719727      7969.21 
 3035000   -204924.87    1.6249501 0.00065586281    61.351377    61.701922    61.476946    7983.5154 
 3040000   -204901.83    1.5709101 0.00050027603    61.532485    61.449756    61.488999    7997.9197 
 3045000   -204787.45    1.5913833 0.00024642568     61.56737    61.511997    61.562213    8012.3345 
 3050000   -204847.44    1.5829806 -0.00096281158    61.799378    61.585662     61.34625    8026.7729 
 3055000   -204705.22    1.6324372 -0.0054798949    61.703207    61.609957     61.57186    8041.0697 
 3060000   -204834.47    1.6121768 -3.4704941e-05    61.412746    61.672749    61.534529    8055.3971 
 3065000   -204624.71    1.6149772 0.0032170396    61.713342    61.484581    61.504501    8069.8209 
 3070000   -204700.28    1.5779496 -0.001392255    61.407409    61.790564    61.533129    8084.2167 
 3075000   -204726.66    1.5717413 0.00040772991    61.329232    61.708386    61.559337    8098.5757 
 3080000   -204720.99    1.6207043  0.001357253    61.562302    61.652252    61.542205     8112.766 
 3085000    -205062.4    1.5991368 0.0037495033    61.353133    61.482758    61.483307    8127.1581 
 3090000    -204955.7    1.5664614 0.0021664454    61.556614    61.397027    61.455774    8141.4027 
 3095000   -204983.32     1.607883 0.0061038071    61.282113    61.635412    61.407537    8155.7046 
 3100000   -204907.69    1.6521133 0.0041950303    61.520388    61.628394    61.280154    8170.0405 
 3105000   -204820.18    1.6198798 -0.0043437666    61.492906    61.720651    61.451867    8184.3755 
 3110000   -205027.87    1.6464844 -0.0023434202    61.522043     61.35798    61.523008     8198.789 
 3115000   -205006.85    1.5831624 -0.0037141762    61.450119    61.437037    61.512512    8213.1708 
 3120000   -204961.56    1.6164733 -0.0014750113    61.451479    61.549835    61.446252    8227.4631 
[...]
34340000   -193316.88    1.7335544 0.00092902056    73.146559    64.544771    64.664125    74235.815 
34345000   -193542.66    1.7485847 0.0024288313      72.8762    64.859086    64.188719    74248.542 
34350000   -193712.54     1.711393 0.0026284801    71.767692    65.121152    64.274741    74261.311 
34355000   -193683.85    1.7135381 -0.0042821955    72.011627    65.295557    64.469193    74274.102 
34360000   -193474.33    1.6731036 -0.0016245136    72.794234     65.16232     64.32559     74286.85 
34365000   -193427.33    1.6804798 0.0037139177    73.237228    64.609438    64.450062    74299.622 
34370000   -193581.95    1.6995836 0.0026801638    72.209136    65.076081    64.199401    74312.318 
34375000   -193975.69    1.6517198 -0.0043046081    71.021336    65.345297    64.639952    74325.111 
34380000   -194066.67    1.7239784 -0.0008447312    71.942085    64.876075    64.614324    74337.876 
34385000   -193961.61    1.6688031 0.0059150507    71.480078    64.325121    64.974934    74350.653 
34390000   -193499.47    1.6965675 -0.0013801761     72.76161    64.248086    65.101783    74363.447 
34395000   -193208.61     1.705628 -0.00018239361    72.831384    64.301144    65.408614    74376.199 
34400000   -193527.51    1.6908372 -0.0022210897    72.526731    64.933073    64.536032    74388.927 
34405000   -193737.01    1.7009549 0.00055963738    71.915847    64.665697    64.938397    74401.665 
34410000   -193767.96    1.6910352 -0.00030596445    73.034475    64.490044    64.656938    74414.466 
34415000   -193492.13    1.7160566 0.00068881451    73.433549    64.391027    64.751493    74427.206 
34420000   -193534.65    1.6961162 -0.0026379349     72.82517    64.084097    64.995558    74439.979 
34425000   -193677.92    1.7080459 -0.00089326003    71.451119    64.661604    65.118367    74452.804 
34430000   -193857.75      1.70041 0.0019739759    71.679361    64.226173    65.157037    74465.617 
34435000   -193478.09    1.7353269 0.00090346303    72.935761    64.363003    64.580956      74478.4 
34440000    -193821.6      1.74468 0.0020841399    72.607374     65.13134    63.492527    74491.138 
34445000   -193695.47    1.7317803 0.00085748011    73.081478      64.8184    63.960454    74503.972 
34450000    -193956.5    1.6951534 -0.0015898947    72.644926     64.85782    64.237508    74516.776 
34455000   -193986.34     1.665917 -0.00080253783    73.652701      64.7109    64.095623    74529.499 
34460000   -193554.32    1.6379616 0.0013063025    73.571664    64.843577    64.143199    74542.227 
34465000   -193371.16    1.7137871 -0.0018273761    72.998872    64.949621    64.406808    74554.975 
34470000   -193768.45    1.6658571 -2.7447439e-06    72.060823    65.076906     64.13669    74567.828 
34475000   -193608.76    1.6851985 -0.00035702966    72.856905    64.817501    64.107742     74580.61 
34480000   -193370.64    1.7413372 0.0042168024    72.671476    64.995653     64.34112    74593.339 
34485000   -193349.55    1.7077081 0.00029978131     72.83698    64.607898    64.710239     74606.06 
34490000   -193184.26    1.7246201 -0.0015848132     73.70031    65.007493    64.178149    74618.803 
34495000   -193456.29    1.7056941 0.0015747789    73.976899    64.500498    64.201507     74631.51 
34500000   -193745.72    1.7219794 0.0032626547     72.32371    65.079838    64.218027    74644.231 
34505000   -193870.67    1.7094913 0.0017188473    71.916318    64.649973     64.79037    74656.986 
34510000    -193354.9    1.6641785 -0.0027712095    72.935146    65.078587    64.460131    74669.748 
34515000   -193099.27    1.6549984 -0.0048923231    73.833019    64.852014    64.581128    74682.493 
34520000   -193279.38    1.6997068 -0.0046677078    72.923489    65.093995    64.379816     74695.24 
34525000   -193919.68    1.6907259 0.0028535895    71.523714    64.482836    64.790356    74708.002 
34530000   -193745.42    1.6952588 -0.00029853913    72.517231     64.11255    64.897526    74720.842 
34535000   -193418.74    1.7197772 0.0022282012     72.54962     64.41651    64.728267    74733.605 
34540000   -193390.29    1.6564211 0.0040480544    73.108727    64.270773    64.929824    74746.361 
34545000   -193365.98    1.6802581 0.00031571687    73.562171    64.292464    64.660716    74759.074 
34550000    -193308.8    1.6416812 0.0027941331    73.559667    64.438696    64.304435    74771.795 
34555000   -193597.71    1.7271918 -0.0018471788    71.846283    64.908204    64.619593    74784.533 
34560000   -193810.75    1.6864588 0.0024202122    71.767347    64.725367      64.4035    74797.363 
34565000   -193699.92     1.691007 0.0010304066    72.445886    64.525457    64.664198    74810.113 
34570000   -193729.68     1.707012 -0.00033875457    72.381293    65.220059    63.977329    74822.878 
34575000   -193994.76    1.6964512 -0.0029955684    73.171677    64.901123    63.868191    74835.645 
34580000   -193821.45    1.6992751 0.0045853916    72.921791    64.675951    63.876389    74848.393 
34585000   -193709.39    1.6913181 0.00096208839    72.473151    64.975349    64.275406    74861.163 
34590000   -193303.24    1.6626837 0.0016141555    72.495737    64.690459    64.531598    74873.962 
34595000   -193656.88    1.7051329 -0.0016605793    71.654049    64.408814    64.973994    74886.767 
34600000   -193544.45    1.6728807 0.0011756049    72.597833    64.440219    64.630076    74899.598 
34605000   -193509.49    1.7083939  0.001581677    72.812142    64.182469    64.999558    74912.362 
34610000   -193649.16    1.7180323 -0.0013561722    72.690551    64.685893    64.550902    74925.145 
34615000   -193959.98     1.667919 -0.0031463595    72.009496    64.841827    64.797238     74937.92 
34620000    -193864.7    1.6917399 -0.0024049474    72.114535    65.273766    64.374045    74950.712 
34625000   -193011.78    1.6894262 -0.0023111915    73.390862    65.008738    64.632518    74963.433 
34630000   -193316.05    1.6996287 0.0013276084    72.665018    64.618239    64.811338    74976.119 
34635000   -193199.69    1.6793316 -0.0034234865     73.29594    64.538977    65.273342    74988.839 
34640000   -193495.02    1.6954012 0.0032826528    72.728415     64.53659    64.833546    75001.623 
34645000   -193356.22    1.7066812 0.0035813374    73.575848    64.649394    64.418505     75014.38 
34650000   -193526.71    1.7483585 -0.00073148273    72.882372    65.088875    64.290698    75027.082 
34655000   -193498.97     1.691026 0.00012406019    73.354145    64.402932     64.75735    75039.822 
34660000   -193570.19    1.6853707 0.0055675369     72.88386    64.164911    64.481451    75052.565 
34665000   -193568.25     1.682351 -0.0019905742    72.879679    64.797264    64.561575     75065.36 
34670000    -193317.5    1.6915456 -8.6410335e-05    72.844145    64.851361    64.579922    75078.108 
34675000   -193598.08     1.683576 0.0044473804    72.488129    65.230584    64.023179    75090.832 
34680000   -193312.21    1.7085985 -0.0009038295    72.633138    64.773437    64.609655     75103.65 
34685000   -193538.95    1.6736059 0.0065452442    72.129606    64.421674    65.051652    75116.398 
34690000   -193273.01    1.7438998 -0.0027576671    73.726455    63.788878    65.441141    75129.141 
34695000   -193587.91    1.6730249 -0.0011765803    72.573859    64.521665    65.008714    75141.829 
34700000   -193549.86    1.7236634 -0.0014669865    72.539864    64.923585    64.328161      75154.6 
34705000   -193505.18    1.7295944 -0.0032659166    72.726316    64.874975    64.329223     75167.37 
34710000   -193464.84    1.6584806  0.002382222     72.56013    63.872832    65.136537    75180.078 
34715000    -193668.1    1.6902977 0.0032998428    71.420793    64.152829    65.355945    75192.882 
34720000    -193942.8     1.730477 -0.00035551847    71.967826    64.378681    64.897083    75205.738 
34725000   -193776.09    1.7606546 0.00041363521     72.62842    64.355075    64.817613    75218.495 
34730000    -193507.2    1.6830464 -0.0013890867     73.21712    64.720919    64.465475    75231.246 
34735000    -193254.9    1.6783715 -0.003351202    73.805914    64.570841    64.452647    75243.992 
34740000   -193647.89    1.6889084 -0.0021424057    72.654466    65.306157    64.101589    75256.794 
34745000    -193763.1    1.6930103 -0.0021999457    71.074175    65.447163    64.859616    75269.601 
34750000   -193728.91    1.6857278 -0.00089081913    71.623415    65.225148    64.517924    75282.435 
34755000   -193716.31    1.7224802 0.0026371721      71.7197    64.730695    64.930699    75295.224 
34760000    -193538.3    1.6891723 -0.00066917152    72.456962    64.463037    65.067441    75307.983 
34765000   -193621.42     1.719968 0.00048728957    72.087777    64.590359    65.141912    75320.745 
34770000   -193823.21    1.6738301 0.0002407932    71.918932     64.85032    64.745952    75333.483 
34775000   -193688.59    1.7206726 0.0041274796     72.85357    64.764051    64.316437    75346.197 
34780000   -193485.75    1.7038946 -0.00019533167    73.927781    65.372163    63.279137    75358.943 
34785000   -193451.74    1.7123312 -0.00016909887    73.114814     65.59029    63.474591    75371.698 
34790000   -193650.84    1.7426961 -0.0033161363    72.166679    65.238626    64.515174    75384.457 
34795000   -193891.43     1.655641 -0.0029344833    71.946307      64.7138    64.697132    75397.245 
34800000   -193558.09    1.7340456 0.00034569646    72.252411    65.056034    64.799055    75410.099 
34805000   -193733.59    1.6559956 0.00048243438    72.466042    64.803428    64.742432     75422.85 
34810000   -193615.01    1.7001144 -0.0038188301    72.013734    65.127477    64.769585    75435.635 
34815000   -193293.86    1.7139708 -0.00085807163    73.429872    64.977453    64.365501    75448.403 
34820000   -194176.56    1.6864807 0.0074170855    72.039207    64.377184    64.334983    75461.179 
34825000   -193916.32    1.7172921 0.0017243145    72.183724    65.044672    63.737304    75473.974 
34830000   -193893.83    1.7148131 0.0015684449    72.179437     64.59999    64.152848    75486.831 
34835000    -193673.7    1.7251954 -0.0031805364    72.355537    64.724325    64.409678    75499.611 
34840000   -193490.26    1.6797273 0.0019981142    72.683337    64.705137    64.265211    75512.407 
34845000   -193501.95    1.6869097 0.0062524959    72.880917     64.88463    64.139565    75525.167 
34850000   -193869.87    1.6737703 0.00094098804    72.212282    64.535566    64.777295    75537.904 
34855000   -193911.65    1.6897785 -0.00017064791     72.12371    64.254264    65.133596     75550.72 
34860000   -193871.94    1.7944701 0.0026626204    72.184969    64.825175    64.466571    75563.485 
34865000   -194031.47    1.6681742 0.00021465304    71.608113    65.265718    64.318377    75576.275 
34870000   -193174.59    1.7337731 0.0036189426    73.344073    65.032954    63.963286    75589.021 
34875000   -193446.31    1.7066959 -0.00031397052    73.016871    65.128682    64.013515    75601.735 
34880000   -193761.06    1.6921414 -0.00044596957    72.775808    64.866596    64.078966     75614.47 
34885000   -193897.78    1.6909328 0.00012382278    72.515387     64.79889    64.196548    75627.269 
34890000   -193644.73    1.7103372 -0.0023914197    73.274915    64.932792    64.033472    75640.063 
34895000   -193524.85    1.7040036 -0.0013776306    72.988477    64.749232    64.569599    75652.792 
34900000   -193440.19    1.6782974 0.0032840193    72.270245    64.574852    64.662094    75665.523 
34905000   -193432.43    1.6844513 0.00010730569    72.302596    64.544274    64.655464    75678.304 
34910000   -193498.16    1.6670703 -0.00096242307    72.278054    65.073342    64.689165    75691.034 
34915000   -193762.67    1.6460726 -0.0027743789    72.700136    65.013977    64.446375    75703.765 
34920000    -193754.4    1.6728719 -0.00019994949    72.392901    65.051055    64.595203    75716.487 
34925000   -193749.58    1.7036402 0.0021341901    71.596238    65.115137    64.562861    75729.288 
34930000   -193849.24    1.7428369 -0.00085709324    71.226192    65.130667    64.571931    75742.061 
34935000   -193718.74    1.7283395  0.002390807    71.471308    64.569224     64.76743    75754.881 
34940000   -193787.06    1.7263531 -0.0020551212    71.695509     64.84998    64.672643    75767.729 
34945000   -194004.01    1.7062585 -0.0040659921    72.206743    64.167928     65.13207    75780.543 
34950000   -194049.24    1.6847945 -0.0012948747    71.040655    64.774195    65.248547    75793.341 
34955000   -193577.35    1.7426093 0.0021893806    72.405664    64.668971    64.603818    75806.123 
34960000   -193219.73    1.6505372 0.00013955569    72.639115    64.675009    64.758644    75818.887 
34965000    -192944.6    1.6608626  0.002211121    73.494789     64.66556    64.377215    75831.625 
34970000   -193224.87    1.7272303 0.0034296293    72.673838    64.503755     64.55583    75844.347 
34975000   -193446.78    1.6480112 0.0015503405    72.438611    64.629832    64.889125    75857.111 
34980000   -193745.97     1.710972  0.003378713    72.166078    64.759615    64.516419    75869.909 
34985000   -193603.02    1.7428671 0.00073351064      72.4744    64.669475    64.742499    75882.691 
34990000   -193819.08    1.7520028 0.0015274977    72.771227    64.604511    64.568439    75895.516 
34995000   -193763.57    1.7427927 -0.00072792193    72.408087    64.338239    65.136545    75908.316 
35000000   -193446.97     1.734976 -0.00070785924    72.832736    64.634817     64.83364    75921.087 
35005000   -193973.26    1.6790444 -0.005880933    72.547831    64.705504    64.596669    75933.896 
35010000   -193454.23     1.717261 0.0031565868    73.216545    64.710772    64.177135    75946.623 
35015000   -193603.58    1.6284337 -0.0024028793    72.116888    64.812375    64.801736    75959.365 
35020000   -193665.57    1.6822213 0.0024314792    72.843648    64.161316    64.874128    75972.071 
35025000   -193625.11    1.7079375 -0.0019770309    72.704507    64.233083    65.269604    75984.809 
35030000   -193470.86    1.7393789 -0.0036201992    72.624465    64.777408    65.209663    75997.575 
35035000   -193075.07    1.7113763 0.0013668834    73.588644     64.57138    64.470096    76010.345 
35040000   -192665.85    1.6518215 -0.0044598451    74.422494    65.112946    64.128837    76023.031 
35045000   -193246.03    1.7084221  -0.00106373    72.970321    65.195311    64.601256    76035.704 
35050000   -193318.32    1.7069747 0.0029367095    73.180967    64.435701    64.591018    76048.409 
35055000   -193817.41    1.6788173 -0.0048250399    72.350138    64.430384    64.811191    76061.219 
35060000   -193756.34    1.7279701 0.0060728392    72.319971    64.705469    64.441612    76074.053 
35065000   -193353.88    1.7150353 3.4811348e-05    72.424675    64.748883    64.834776    76086.828 
35070000      -193099    1.7119556 -0.00086766934     72.98927    64.899916    64.531876    76099.575 
35075000    -192836.9    1.7310292 -0.0043111207    73.880188    64.897056    64.645415    76112.271 
35080000    -193425.7    1.6929848 0.00047502249    73.338456    64.381013    64.801511     76124.99 
35085000   -193302.18     1.722357 -0.00012203752    73.888765    64.455915    64.816593    76137.709 
35090000   -193251.96    1.6779309  0.001811814    74.030259    64.168404    65.075692     76150.42 
35095000   -193680.76    1.6990679 -0.00029708624    72.746684    64.203306    65.170852    76163.076 
35100000   -193739.85    1.7208367 0.0046903692     72.16167    64.415515    65.012802    76175.838 
35105000   -193657.41    1.6832493 0.0014162854    72.032343    64.333677    65.331416    76188.633 
35110000   -193564.25    1.7057555 0.0012771132    72.857065    64.138874    65.413948    76201.374 
35115000   -193261.32    1.7154525 0.0007813802    73.606826    64.068386    65.488411    76214.075 
35120000   -193642.62    1.6767803 0.0028422751    73.577892     63.50322    65.477243    76226.768 
35125000   -193329.72    1.6880586 -0.0024140708    73.446228    63.669707    65.735069    76239.487 
35130000   -193374.09    1.6820633 0.0037300648    72.806434    63.502327     65.52486     76252.27 
35135000   -193470.39    1.6919118 -0.0049612965    72.553286    63.890018    65.773174    76265.028 
35140000   -193648.91    1.7431471 -0.00027858355    71.756975    63.812856    65.686925    76277.788 
35145000   -193744.96    1.7360987 -0.0010475635    73.155835    63.528284    65.398408    76290.523 
35150000   -193383.53    1.6773843 0.0026735336    74.617656    63.008358    65.327337    76303.241 
35155000   -193371.88    1.7045568 0.0011188388     73.02755    63.871529     65.30956    76315.959 
35160000   -193693.94    1.7182401  0.001960518    72.524441    64.383791    64.759529     76328.67 
35165000   -193620.84    1.7033184   -0.0010798    72.590888    64.294683    64.740904     76341.46 
35170000    -193240.2    1.6669007 -0.0035405817    73.236274    64.363612    64.663845    76354.238 
35175000   -193729.61    1.6146751 0.0024042995    72.407166     64.09194    64.785935    76366.948 
35180000   -193448.28    1.6931751 -0.00058088853    73.347647    63.834652    65.123858    76379.691 
35185000    -193202.2    1.6954522 -0.00029529002     74.20375    63.963204    64.915577    76392.435 
35190000   -193092.58    1.7082943 0.00090957179    74.676839    63.607202    65.046232    76405.124 
35195000   -192965.17    1.7141415 -0.00067138341    74.975827    64.225383    64.903863    76417.766 
35200000   -193136.19    1.7132697 0.00016135496    73.588606    64.633377    64.639425    76430.447 
35205000   -193277.85    1.6908514 -0.001632604    73.050946    64.848821     64.38074    76443.182 
35210000   -193505.19    1.7327749 -0.00045497016    72.526964    64.794123    64.415913     76455.94 
35215000    -193250.8     1.658275 -0.002148294    72.695593    64.698007    64.264311    76468.717 
35220000   -193389.82    1.6566495 -0.002886749    72.524501    64.220627    64.950161    76481.443 
35225000   -193328.32    1.6976384 -0.0010387911    72.563126    64.206533    65.056373    76494.147 
35230000   -193500.53    1.6794604 -0.0027908262    72.808332    64.500298    65.034173    76506.884 
35235000   -193357.92    1.7086658 -0.0014186703    74.038365    64.033611    65.097843    76519.625 
35240000   -193475.29    1.6934139 0.00088844367    73.820545    64.101857    64.865024    76532.316 
35245000   -193799.63      1.70106 0.00085429551    72.268824    64.646404    64.822148    76545.085 
35250000   -194070.25    1.6679241 -7.5222633e-05     71.57593    64.781872    64.773553    76557.874 
Loop time of 76557.9 on 8 procs for 30000000 steps with 2304 atoms

Performance: 16928.368 tau/day, 391.860 timesteps/s
95.8% CPU use with 8 MPI tasks x 1 OpenMP threads

MPI task timing breakdown:
Section |  min time  |  avg time  |  max time  |%varavg| %total
---------------------------------------------------------------
Pair    | 11249      | 12484      | 14266      | 826.1 | 16.31
Bond    | 2.1752     | 2.739      | 3.1702     |  21.8 |  0.00
Kspace  | 32528      | 32727      | 32936      |  85.4 | 42.75
Neigh   | 1920.7     | 1938.1     | 1998.6     |  54.6 |  2.53
Comm    | 2925.2     | 2962.7     | 3022.5     |  53.8 |  3.87
Output  | 4.3443     | 4.4472     | 5.1518     |  12.6 |  0.01
Modify  | 19650      | 24208      | 27303      |1724.8 | 31.62
Other   |            | 2231       |            |       |  2.91

Nlocal:        288.000 ave         292 max         280 min
Histogram: 1 0 0 0 0 1 2 1 1 2
Nghost:        5884.50 ave        5932 max        5851 min
Histogram: 3 1 0 0 0 2 0 0 1 1
Neighs:         0.00000 ave           0 max           0 min
Histogram: 8 0 0 0 0 0 0 0 0 0
FullNghs:      237057.0 ave      241383 max      229712 min
Histogram: 1 0 0 0 1 0 3 1 1 1

Total # of neighbors = 1896454
Ave neighs/atom = 823.11372
Ave special neighs/atom = 0.0000000
Neighbor list builds = 229909
Dangerous builds = 0

Total wall time: 25:36:32
