LAMMPS (27 Oct 2021)
OMP_NUM_THREADS environment is not set. Defaulting to 1 thread. (src/comm.cpp:98)
  using 1 OpenMP thread(s) per MPI task
package gpu 0
package gpu 2 neigh no pair/only on
#Lammps gcmc code for electrolytes

## ----- Simulation times ----- ##
    variable t_nve      equal 50000             #nve/limit
    variable t_deform 	equal 50000            #nvt
    variable t_pressed 	equal 50000            #nvt
    variable t_relaxed 	equal 100000            #nvt
    variable t_eq 	equal 5000000           #nvt

    variable smallc	equal 10
    variable bigc	equal -80
    variable numB	equal 256
    variable numS	equal ${numB}*8
    variable numS	equal 256*8
#    variable numCl	equal ${numS}*${smallc}+${bigc}*${numB}

## ----- Environment setting ----- ##
    boundary p p p
    atom_style full

## ----- System Variables  ----- ##
    variable    ttemp       equal   1.6          	#reduced temperature
    variable    ppress      equal   0			#osmetic pressure
    variable    cutoff_pppm equal   28.3	        #cutoff for the real part of pppm
    variable	ipress      equal   0.1

    variable    bigd        equal   10                      #LJ sigmas
    variable    smalld      equal   2
    variable    d_bs        equal   0.5*(${bigd}+${smalld})
    variable    d_bs        equal   0.5*(10+${smalld})
    variable    d_bs        equal   0.5*(10+2)

    variable    cut_small   equal   ${smalld}*1.122462	    #cutoffs for LJ
    variable    cut_small   equal   2*1.122462	    
    variable    cut_big     equal   ${bigd}*1.122462
    variable    cut_big     equal   10*1.122462
    variable    cut_bs      equal   ${d_bs}*1.122462
    variable    cut_bs      equal   6*1.122462


## ----- Initialization and grouping ----- ##
    read_data config_fcc8.dat
Reading data file ...
  triclinic box = (-80.000000 -80.000000 -80.000000) to (80.000000 80.000000 80.000000) with tilt (0.0000000 0.0000000 0.0000000)
  2 by 2 by 2 MPI processor grid
  reading atoms ...
  2304 atoms
Finding 1-2 1-3 1-4 neighbors ...
  special bond factors lj:    0        0        0       
  special bond factors coul:  0        0        0       
     0 = max # of 1-2 neighbors
     0 = max # of 1-3 neighbors
     0 = max # of 1-4 neighbors
     1 = max # of special neighbors
  special bonds CPU = 0.001 seconds
  read_data CPU = 0.016 seconds

    set type 1 charge   ${bigc}    	#large NPs
    set type 1 charge   -80    	
Setting atom values ...
  256 settings made for charge
    set type 2 charge   ${smallc}       #small NPs
    set type 2 charge   10       
Setting atom values ...
  2048 settings made for charge
#    set type 3 charge   1       #Na+
#    set type 3 charge   -1      #Cl-

    mass    *   0.2
    mass    1   25.0

    group big       type 1
256 atoms in group big
    group small     type 2
2048 atoms in group small
#    group cation    type 3
#    group anion     type 3

## ----- Interaction setting ----- ##
    pair_style lj/cut/coul/long ${cut_big} ${cutoff_pppm} #lj/cut/coul/long/soft 2.0 0.5 5.0 ${cut_small} ${cutoff_pppm}
    pair_style lj/cut/coul/long 11.22462 ${cutoff_pppm} 
    pair_style lj/cut/coul/long 11.22462 28.3 
    #Between regular particles (4*5/2=10)
    pair_coeff  1   1   2.0     ${bigd}     ${cut_big}	        # big-big
    pair_coeff  1   1   2.0     10     ${cut_big}	        
    pair_coeff  1   1   2.0     10     11.22462	        
    pair_coeff  2   2   2.0     ${smalld}   ${cut_small}	    # small-small
    pair_coeff  2   2   2.0     2   ${cut_small}	    
    pair_coeff  2   2   2.0     2   2.244924	    
    pair_coeff  1   2   2.0     ${d_bs}     ${cut_bs}	        # big-small
    pair_coeff  1   2   2.0     6     ${cut_bs}	        
    pair_coeff  1   2   2.0     6     6.734772	        
    pair_modify shift yes
    kspace_style	pppm	5.0e-4

## ----- Simulation setup ----- ##
    neighbor 1.2 bin
    neigh_modify delay 0 every 1 check yes #one 2000

    compute temp all temp
    compute press all pressure temp

    thermo 5000
    thermo_style custom step pe temp c_press lx ly lz cpu
    thermo_modify norm no flush yes

   # dump moldump all custom 50000 ${xyzname} id type q x y z

## ----- Thermalization of system ----- ##
    timestep 0.0002

    fix 1 all nve/limit 0.05
    fix 2 big langevin ${ttemp} ${ttemp} 0.2 ${rseed1}
    fix 2 big langevin 1.6 ${ttemp} 0.2 ${rseed1}
    fix 2 big langevin 1.6 1.6 0.2 ${rseed1}
    fix 2 big langevin 1.6 1.6 0.2 22201
    fix 3 small langevin ${ttemp} ${ttemp} 0.008 ${rseed2}
    fix 3 small langevin 1.6 ${ttemp} 0.008 ${rseed2}
    fix 3 small langevin 1.6 1.6 0.008 ${rseed2}
    fix 3 small langevin 1.6 1.6 0.008 15158

    fix freeze big setforce 0.0 0.0 0.0
    fix zeromom all momentum 1 linear 1 1 1 angular
    run ${t_nve}
    run 50000

CITE-CITE-CITE-CITE-CITE-CITE-CITE-CITE-CITE-CITE-CITE-CITE-CITE

Your simulation uses code contributions which should be cited:

- GPU package (short-range, long-range and three-body potentials):

@Article{Brown11,
 author = {W. M. Brown, P. Wang, S. J. Plimpton, A. N. Tharrington},
 title = {Implementing Molecular Dynamics on Hybrid High Performance Computers - Short Range Forces},
 journal = {Comp.~Phys.~Comm.},
 year =    2011,
 volume =  182,
 pages =   {898--911}
}

@Article{Brown12,
 author = {W. M. Brown, A. Kohlmeyer, S. J. Plimpton, A. N. Tharrington},
 title = {Implementing Molecular Dynamics on Hybrid High Performance Computers - Particle-Particle Particle-Mesh},
 journal = {Comp.~Phys.~Comm.},
 year =    2012,
 volume =  183,
 pages =   {449--459}
}

@Article{Brown13,
 author = {W. M. Brown, Y. Masako},
 title = {Implementing Molecular Dynamics on Hybrid High Performance Computers – Three-Body Potentials},
 journal = {Comp.~Phys.~Comm.},
 year =    2013,
 volume =  184,
 pages =   {2785--2793}
}

@Article{Trung15,
 author = {T. D. Nguyen, S. J. Plimpton},
 title = {Accelerating dissipative particle dynamics simulations for soft matter systems},
 journal = {Comput.~Mater.~Sci.},
 year =    2015,
 volume =  100,
 pages =   {173--180}
}

@Article{Trung17,
 author = {T. D. Nguyen},
 title = {GPU-accelerated Tersoff potentials for massively parallel Molecular Dynamics simulations},
 journal = {Comp.~Phys.~Comm.},
 year =    2017,
 volume =  212,
 pages =   {113--122}
}

@Article{Nikolskiy19,
 author = {V. Nikolskiy, V. Stegailov},
 title = {GPU acceleration of four-site water models in LAMMPS},
 journal = {Proceeding of the International Conference on Parallel Computing (ParCo 2019), Prague, Czech Republic},
 year =    2019
}

CITE-CITE-CITE-CITE-CITE-CITE-CITE-CITE-CITE-CITE-CITE-CITE-CITE

PPPM initialization ...
  using 12-bit tables for long-range coulomb (src/kspace.cpp:340)
  G vector (1/distance) = 0.11279571
  grid = 60 60 60
  stencil order = 5
  estimated absolute RMS force accuracy = 0.0003775628
  estimated relative force accuracy = 0.0003775628
  using double precision KISS FFT
  3d grid and FFT values/proc = 42875 28800
  generated 0 of 1 mixed pair_coeff terms from geometric mixing rule
Neighbor list info ...
  update every 1 steps, delay 0 steps, check yes
  max neighbors/atom: 2000, page size: 100000
  master list distance cutoff = 29.5
  ghost atom cutoff = 29.5
  binsize = 14.75, bins = 11 11 11
  1 neighbor lists, perpetual/occasional/extra = 1 0 0
  (1) pair lj/cut/coul/long/gpu, perpetual
      attributes: full, newton off
      pair build: full/bin
      stencil: full/bin/3d
      bin: standard
Per MPI rank memory allocation (min/avg/max) = 11.95 | 12.05 | 12.16 Mbytes
Step PotEng Temp c_press Lx Ly Lz CPU 
       0 1.7992005e+08            0    175.78446          160          160          160            0 
    5000   -68450.675    1.4200391 -0.0043343288          160          160          160    30.273538     10000   -73611.024    1.3866565 -0.0044353847          160          160          160     60.39444     15000   -78550.584    1.3979064 -0.0045157176          160          160          160    90.794035     20000    -82714.07    1.4177959 -0.0044601415          160          160          160    121.07782    25000   -85919.517    1.4111668 -0.0044082755          160          160          160    203.70183 
   30000   -89246.725    1.4434298 -0.0043725432          160          160          160    244.46575 
   35000   -92378.841    1.4588615 -0.0044837836          160          160          160    285.25423 
   40000   -95256.737    1.4136879 -0.0043406952          160          160          160    326.03027 
   45000   -98235.524    1.4768385 -0.0043049322          160          160          160     366.7583 
   50000   -100838.18    1.4387287 -0.004300384          160          160          160    407.61772 
Loop time of 407.621 on 8 procs for 50000 steps with 2304 atoms

Performance: 2119.617 tau/day, 122.663 timesteps/s
99.7% CPU use with 8 MPI tasks x 1 OpenMP threads

MPI task timing breakdown:
Section |  min time  |  avg time  |  max time  |%varavg| %total
---------------------------------------------------------------
Pair    | 9.0354     | 9.2569     | 9.4452     |   5.9 |  2.27
Bond    | 0.005689   | 0.0076648  | 0.0094647  |   1.2 |  0.00
Kspace  | 390.98     | 391.88     | 392.31     |   2.2 | 96.14
Neigh   | 0.064804   | 0.073335   | 0.083188   |   2.4 |  0.02
Comm    | 2.4118     | 3.0151     | 3.8311     |  27.0 |  0.74
Output  | 0.00037263 | 0.01183    | 0.09201    |  27.9 |  0.00
Modify  | 2.7326     | 2.8006     | 2.8615     |   2.1 |  0.69
Other   |            | 0.5758     |            |       |  0.14

Nlocal:        288.000 ave         313 max         261 min
Histogram: 2 0 0 1 0 2 1 0 0 2
Nghost:        1365.25 ave        1394 max        1337 min
Histogram: 1 0 1 1 1 2 0 1 0 1
Neighs:         0.00000 ave           0 max           0 min
Histogram: 8 0 0 0 0 0 0 0 0 0
FullNghs:      17381.2 ave       19944 max       14865 min
Histogram: 2 0 0 1 0 3 0 0 0 2

Total # of neighbors = 139050
Ave neighs/atom = 60.351562
Ave special neighs/atom = 0.0000000
Neighbor list builds = 67
Dangerous builds = 0

    fix deforming all deform 10 x final -33 33 y final -33 33 z final -33 33 remap x
    run ${t_deform}
    run 50000
PPPM initialization ...
  using 12-bit tables for long-range coulomb (src/kspace.cpp:340)
  G vector (1/distance) = 0.11279571
  grid = 60 60 60
  stencil order = 5
  estimated absolute RMS force accuracy = 0.0003775628
  estimated relative force accuracy = 0.0003775628
  using double precision KISS FFT
  3d grid and FFT values/proc = 42875 28800
  generated 0 of 1 mixed pair_coeff terms from geometric mixing rule
Per MPI rank memory allocation (min/avg/max) = 11.95 | 12.05 | 12.16 Mbytes
Step PotEng Temp c_press Lx Ly Lz CPU 
   50000   -100838.18    1.4387287 -0.004300384          160          160          160            0 
   55000   -107267.67    1.4223491 -0.0038075998        150.6        150.6        150.6     43.25594 
   60000   -114308.42    1.4208972 -0.0041121348        141.2        141.2        141.2    86.592751 
   65000   -121914.69    1.3835461 -0.0045553378        131.8        131.8        131.8    129.90149 
   70000    -129979.7    1.4383227 -0.0036345371        122.4        122.4        122.4    173.24769 
   75000   -138194.73    1.4006082 -0.0026998036          113          113          113    216.63226 
   80000   -146842.92    1.4335849  0.001611919        103.6        103.6        103.6    260.02078 
   85000   -155397.07    1.4141365 0.0097162172         94.2         94.2         94.2      303.588 
   90000   -163959.61    1.4242002  0.032026981         84.8         84.8         84.8    347.29415 
   95000   -172364.82     1.466402  0.077977848         75.4         75.4         75.4    391.25122 
  100000   -182154.38    1.4910182   0.17668348           66           66           66    435.54193 
Loop time of 435.545 on 8 procs for 50000 steps with 2304 atoms

Performance: 1983.723 tau/day, 114.799 timesteps/s
99.7% CPU use with 8 MPI tasks x 1 OpenMP threads

MPI task timing breakdown:
Section |  min time  |  avg time  |  max time  |%varavg| %total
---------------------------------------------------------------
Pair    | 9.8473     | 10.176     | 10.436     |   6.1 |  2.34
Bond    | 0.0057478  | 0.0079812  | 0.0099802  |   1.2 |  0.00
Kspace  | 386.42     | 387.15     | 387.64     |   1.8 | 88.89
Neigh   | 0.88412    | 0.96728    | 1.0718     |   6.1 |  0.22
Comm    | 3.7504     | 4.4555     | 5.2039     |  21.9 |  1.02
Output  | 0.00039246 | 0.011106   | 0.058568   |  17.3 |  0.00
Modify  | 27.042     | 29.72      | 32.113     |  34.1 |  6.82
Other   |            | 3.061      |            |       |  0.70

Nlocal:        288.000 ave         305 max         274 min
Histogram: 2 0 0 1 2 1 0 0 1 1
Nghost:        6158.88 ave        6189 max        6123 min
Histogram: 2 0 0 0 1 1 1 0 2 1
Neighs:         0.00000 ave           0 max           0 min
Histogram: 8 0 0 0 0 0 0 0 0 0
FullNghs:      246485.0 ave      262994 max      234310 min
Histogram: 2 0 0 2 2 0 0 0 1 1

Total # of neighbors = 1971878
Ave neighs/atom = 855.84983
Ave special neighs/atom = 0.0000000
Neighbor list builds = 330
Dangerous builds = 0

    unfix 1
#    unfix 2
    unfix freeze
    unfix deforming

    timestep 0.002

    fix 1 all   nph	            tri ${ipress} ${ipress} 1.0
    fix 1 all   nph	            tri 0.1 ${ipress} 1.0
    fix 1 all   nph	            tri 0.1 0.1 1.0
    run ${t_pressed}
    run 50000
PPPM initialization ...
  using 12-bit tables for long-range coulomb (src/kspace.cpp:340)
  G vector (1/distance) = 0.11896362
  grid = 32 32 32
  stencil order = 5
  estimated absolute RMS force accuracy = 0.00045532445
  estimated relative force accuracy = 0.00045532445
  using double precision KISS FFT
  3d grid and FFT values/proc = 9261 4096
  generated 0 of 1 mixed pair_coeff terms from geometric mixing rule
Per MPI rank memory allocation (min/avg/max) = 9.318 | 9.324 | 9.328 Mbytes
Step PotEng Temp c_press Lx Ly Lz CPU 
  100000   -182113.57    1.4910182    0.1783374           66           66           66            0 
  105000   -200510.96    1.6414876   0.10875278    61.818859    61.622128    61.304738     15.48343 
  110000   -202643.32    1.5991378  0.096876652    60.949833    60.621719    60.683087    31.286314 
  115000    -204129.8    1.5927543  0.089343076    60.249043    60.388316    60.184001     47.31923 
  120000   -204597.79      1.56344   0.10166341     60.17416    59.954047    59.855092    63.301754 
  125000    -205014.6    1.5650089   0.10435804    59.988897    59.842827    59.902581    79.433278 
  130000   -205399.27     1.556648   0.10556383    59.843979    59.867735    59.886225     95.52469 
  135000   -205391.34    1.6397382   0.10544296    59.893317    60.012089    59.766725    111.42293 
  140000   -205472.67    1.5951896  0.097820014    60.242348    59.683769    59.918405    127.51003 
  145000   -205544.44     1.607573   0.10022696    59.741805    60.212822    59.876408    143.56645 
  150000   -205691.27    1.5934554  0.094539367    59.869141    59.762532    60.351383    159.63593 
Loop time of 159.639 on 8 procs for 50000 steps with 2304 atoms

Performance: 54121.964 tau/day, 313.206 timesteps/s
97.0% CPU use with 8 MPI tasks x 1 OpenMP threads

MPI task timing breakdown:
Section |  min time  |  avg time  |  max time  |%varavg| %total
---------------------------------------------------------------
Pair    | 18.259     | 20.491     | 22.601     |  28.0 | 12.84
Bond    | 0.0041294  | 0.0045376  | 0.0050343  |   0.4 |  0.00
Kspace  | 66.757     | 67.467     | 68.27      |   5.9 | 42.26
Neigh   | 14.909     | 15.224     | 15.932     |   7.9 |  9.54
Comm    | 6.3224     | 6.3721     | 6.4191     |   1.3 |  3.99
Output  | 0.00032764 | 0.012864   | 0.1006     |  29.2 |  0.01
Modify  | 46.342     | 48.228     | 50.175     |  20.7 | 30.21
Other   |            | 1.84       |            |       |  1.15

Nlocal:        288.000 ave         291 max         285 min
Histogram: 1 1 0 1 0 2 1 0 1 1
Nghost:        7287.88 ave        7295 max        7280 min
Histogram: 1 0 2 0 1 0 1 0 2 1
Neighs:         0.00000 ave           0 max           0 min
Histogram: 8 0 0 0 0 0 0 0 0 0
FullNghs:      331682.0 ave      335686 max      327718 min
Histogram: 1 1 0 1 2 0 1 0 1 1

Total # of neighbors = 2653456
Ave neighs/atom = 1151.6736
Ave special neighs/atom = 0.0000000
Neighbor list builds = 1402
Dangerous builds = 0
    unfix 1
    fix 1 all   nph	            tri ${ipress} ${ppress} 1.0
    fix 1 all   nph	            tri 0.1 ${ppress} 1.0
    fix 1 all   nph	            tri 0.1 0 1.0
    run ${t_relaxed}
    run 100000
PPPM initialization ...
  using 12-bit tables for long-range coulomb (src/kspace.cpp:340)
  G vector (1/distance) = 0.11966148
  grid = 30 30 30
  stencil order = 5
  estimated absolute RMS force accuracy = 0.00046001056
  estimated relative force accuracy = 0.00046001056
  using double precision KISS FFT
  3d grid and FFT values/proc = 8000 3600
  generated 0 of 1 mixed pair_coeff terms from geometric mixing rule
Per MPI rank memory allocation (min/avg/max) = 9.753 | 9.768 | 9.778 Mbytes
Step PotEng Temp c_press Lx Ly Lz CPU 
  150000    -205691.3    1.5934554  0.094538522    59.869141    59.762532    60.351383            0 
  155000   -205690.37    1.6493894   0.09909368    59.943145    60.051107    59.934469    15.386573 
  160000   -206014.13     1.585664  0.086317213    59.764196    60.205187    60.063339    30.850178 
  165000   -205883.81    1.5995404  0.083154078    60.045637    59.890357    60.339596    46.218448 
  170000   -205968.08    1.5740602  0.068451845    60.193457    60.199392    60.195697    61.615227 
  175000   -206001.34    1.6196637  0.076543343    60.090973    60.045206    60.191759    77.096684 
  180000    -206009.8    1.6249285  0.068257752    60.279906    60.359288    60.269382    92.660204 
  185000   -206008.99    1.6000369  0.055336261    60.541363    60.254812    60.360908     108.2268 
  190000   -206144.95     1.595907  0.058158928     60.44728    60.204474    60.349726    123.48852 
  195000   -205991.43    1.5902139  0.054603687    60.613341     60.27492    60.411948    138.90683 
  200000   -205854.87    1.5735739  0.041853873    60.867226    60.423437    60.477542    154.32953 
  205000   -205848.83    1.5995482  0.040612471    60.542503    60.565388    60.828257    169.67923 
  210000   -205868.02    1.5879612  0.036642985    60.812287    60.670645    60.660437     185.0718 
  215000   -205836.68    1.6092459  0.032856875    60.795258    60.732166    60.643331    200.26949 
  220000   -205791.62    1.5849321  0.027834484    60.687038     60.85087     60.85563    215.55368 
  225000   -205591.13    1.6290072  0.027139821     60.90618    60.833197    60.948764    230.75393 
  230000   -205574.34     1.616665  0.019991876    60.805845    60.891263    61.335081    246.07832 
  235000   -205356.09      1.62061  0.010377797    61.200832    61.009414    61.357757    261.42521 
  240000   -205358.83    1.5665695  0.012389843    61.220544    61.065198    61.231971    276.73796 
  245000   -205035.87    1.6229011 0.0013050596    61.584431     61.32535    61.287467     292.0851 
  250000   -205057.63    1.5681753 -0.0012882044    61.434103    61.444505    61.486498    307.35101 
Loop time of 307.355 on 8 procs for 100000 steps with 2304 atoms

Performance: 56221.719 tau/day, 325.357 timesteps/s
94.3% CPU use with 8 MPI tasks x 1 OpenMP threads

MPI task timing breakdown:
Section |  min time  |  avg time  |  max time  |%varavg| %total
---------------------------------------------------------------
Pair    | 55.335     | 62.147     | 65.271     |  39.0 | 20.22
Bond    | 0.0084543  | 0.0091016  | 0.0097512  |   0.5 |  0.00
Kspace  | 110.36     | 111.66     | 113.32     |   8.1 | 36.33
Neigh   | 30.297     | 30.94      | 31.554     |   7.5 | 10.07
Comm    | 12.753     | 12.853     | 12.981     |   2.1 |  4.18
Output  | 0.00065268 | 0.010547   | 0.079763   |  25.5 |  0.00
Modify  | 67.371     | 82.677     | 91.79      |  99.6 | 26.90
Other   |            | 7.061      |            |       |  2.30

Nlocal:        288.000 ave         292 max         281 min
Histogram: 1 0 1 0 0 1 0 1 2 2
Nghost:        7229.00 ave        7241 max        7211 min
Histogram: 1 0 0 0 1 3 0 0 2 1
Neighs:         0.00000 ave           0 max           0 min
Histogram: 8 0 0 0 0 0 0 0 0 0
FullNghs:      308644.0 ave      312856 max      301217 min
Histogram: 1 0 1 0 0 1 0 1 2 2

Total # of neighbors = 2469150
Ave neighs/atom = 1071.6797
Ave special neighs/atom = 0.0000000
Neighbor list builds = 2847
Dangerous builds = 0
    unfix 1

    timestep 0.001
    dump moldump all custom 10000 ${xyzname} id type q x y z vx vy vz
    dump moldump all custom 10000 r8T1.6_coulombic_.1.lammpstrj id type q x y z vx vy vz
    fix 1 all   nph                 tri ${ppress} ${ppress} 1.0
    fix 1 all   nph                 tri 0 ${ppress} 1.0
    fix 1 all   nph                 tri 0 0 1.0
    run ${t_eq}
    run 5000000
PPPM initialization ...
  using 12-bit tables for long-range coulomb (src/kspace.cpp:340)
  G vector (1/distance) = 0.11911302
  grid = 30 30 30
  stencil order = 5
  estimated absolute RMS force accuracy = 0.00049283201
  estimated relative force accuracy = 0.00049283201
  using double precision KISS FFT
  3d grid and FFT values/proc = 8000 3600
  generated 0 of 1 mixed pair_coeff terms from geometric mixing rule
Per MPI rank memory allocation (min/avg/max) = 11.02 | 11.04 | 11.05 Mbytes
Step PotEng Temp c_press Lx Ly Lz CPU 
  250000   -205057.73    1.5681753 -0.0012915076    61.434103    61.444505    61.486498            0 
  255000   -205092.68    1.6098173 -0.0046706132    61.729477     61.50555    61.335197    14.257828 
  260000   -204944.06    1.5897764 -0.0023396594     61.74769    61.319858     61.68008    28.492273 
  265000   -204756.95    1.5937551 -0.0012080812    61.621693    61.587215    61.579842    42.793536 
  270000   -204907.46    1.6036804 0.00044209344    61.558339    61.656766    61.372006    57.134538 
  275000   -204718.87    1.6214506 0.0016520762    61.483748    61.701189    61.564699    71.400844 
  280000   -204859.91    1.6133178 0.0035823342     61.53151    61.454488    61.551792    85.650241 
  285000   -204933.52    1.5625299 -0.0035606499    61.432964    61.798929    61.508305    99.898791 
  290000    -204890.9    1.6237238 0.0018549183    61.435332    61.445323    61.650688    114.17719 
  295000   -205220.52    1.5881878 -0.0048154293    61.586715    61.352168    61.488935    128.48169 
  300000   -204872.49     1.624105 -7.6705562e-05    61.468223    61.567328     61.47021    142.78988 
  305000   -205009.04    1.6279385 1.3793385e-05    61.608902    61.363104    61.566198    157.09544 
  310000   -205008.96    1.6359953 -0.0012937477    61.424692    61.737373    61.268208    171.42212 
  315000   -204915.57    1.5594868 0.0050274219    61.292911    61.366648    61.719664    185.74094 
  320000   -205137.28    1.6055571 0.0073749234    61.450512    61.279171     61.38096    200.06193 
  325000    -204916.3    1.5849248 0.0044042272    61.544024    61.464115    61.298715    214.38468 
  330000   -205001.72    1.6106891 0.0015196444    61.405055    61.475096    61.449877    228.73363 
  335000   -205011.78    1.6023495 -0.0034883662    61.587961    61.546179    61.310794    243.02745 
  340000   -205008.02    1.6120275 0.0014024853    61.616197    61.474809    61.282017    257.34044 
  345000   -205006.41    1.6298887 0.0015393247    61.458265    61.369039    61.679915    271.59263 
    350000   -204767.76    1.6536186 -0.0017371571    61.664072    61.424909    61.621365    358.2392  3  355000   -204775.67    1.6109062 -0.0011475411    61.592463    61.526809    61.630612    376.1479  3  360000   -204750.02    1.5402033 0.0018542943    61.718091    61.363499    61.410406    394.0326  3  365000   -204594.51    1.5928326 -0.0012912532    61.665877    61.534172    61.665714    411.8878  3  370000   -204675.87    1.6160809 0.0011408331    61.533708    61.628528    61.554093    429.77338 
  375000    -204699.8    1.6066136  0.012721277    61.245632    61.347861    61.600714    447.62205 
  380000   -204853.88    1.5993971 -0.00063077586    61.336727    61.672115    61.495332    465.48079 
  385000      -204699    1.5827396 2.2309678e-05    61.602291    61.429216     61.57648    483.35517 
  390000   -204955.53    1.6010899 0.0025775611    61.488878    61.160495    61.672255    501.28514 
  395000   -205046.82    1.5919426 0.0034176407    61.518212    61.661995    61.246818    519.16091 
  400000   -204921.15     1.612058 0.0049219092    61.277917    61.372869     61.77924    537.04808 
  405000   -204759.14    1.6228239 -0.00025659608    61.605278    61.602993    61.401043    554.89975 
  410000    -204732.8    1.5673179 0.0072088302    61.286236    61.579774    61.636593    572.76897 
  415000   -204668.26    1.5698802 -0.00094076218    61.716453    61.468019    61.486678    590.65646 
  420000   -204728.13    1.5777912 0.0020353028    61.675044    61.358789    61.501898    608.52781 
  425000   -205076.86    1.5758758 0.00016553762    61.347426    61.592442    61.501506    626.38204 
  430000   -204889.42    1.5574262 -0.00028974516    61.711362    61.153378    61.595303    644.27783 
  435000   -204921.71    1.5698794 -4.8507118e-05    61.332349    61.434037    61.617448    662.14692 
  440000   -204935.33    1.6137625 -0.008264326    61.528685    61.467545     61.70969    680.05006 
  445000    -205003.5    1.6265712 0.0015994834    61.393149    61.507772    61.432749    697.99217 
  450000   -204679.48    1.5876201 -0.0012816952    61.752666     61.28565    61.588136    715.90115 
  455000   -204816.49    1.6602429 -0.00039646594    61.362584    61.621793    61.604029    733.74439 
  460000    -204796.8     1.616855 0.00054182878    61.702196    61.450471     61.62455     751.6338 
  465000   -204985.54    1.6450561 -0.0016869938    61.648125    61.390242    61.525482    769.51051 
  470000   -205095.87    1.5829922 0.00049861611    61.430933    61.397896     61.44897    787.33449 
  475000   -204815.36    1.6652671 -0.0011970421    61.373832    61.415561    61.865588    805.22901 
  480000   -204597.45    1.5818907 -0.0035893019    61.562928    61.385816    61.761645    823.11288 
  485000   -204645.25    1.5782032 0.0024063904    61.440633    61.542416    61.703471    841.04606 
  490000   -204925.25    1.5765869 0.0025852598    61.464843     61.43766    61.642104    858.92176 
  495000   -204670.24     1.611288 -0.0059929434    61.570505    61.578381     61.78885    876.84051 
  500000   -204768.23     1.583371 -0.0042208617    61.618094    61.562268    61.596177    894.75617 
  505000   -204585.89    1.6071941 0.0036580366     61.46219    61.608949    61.541655     912.6461 
  510000   -204957.98    1.6050311 -0.0037016429    61.610916    61.523132    61.580427    930.65749 
  515000    -204776.5    1.6326507 0.0019772083    61.560409    61.474985     61.60615    948.53713 
  520000   -204817.45    1.6187047  0.002606778    61.563232    61.607031    61.221106    966.46807 
  525000   -204837.12    1.6037828 -0.00045635855      61.4435    61.449104    61.751274    984.37033 
  530000   -204973.67    1.6125035 0.00081869464     61.56196    61.404967    61.634035    1002.2896 
  535000   -204778.04     1.649221 0.00062089654     61.72137    61.546169    61.471084    1020.1325 
  540000   -204805.08    1.6052379 0.0004611017    61.393635    61.645505    61.547051    1038.0242 
  545000   -204802.03    1.6126836 -0.0005416202    61.504363    61.446233    61.645317    1055.8529 
  550000   -204700.12    1.5812984 -0.0014587755    61.660139    61.530941    61.501487     1073.851 
  555000   -204804.48    1.6002586 0.0013466672    61.326459    61.685778    61.549479    1091.6727 
  560000   -204761.77    1.5616095 -0.002394393    61.691501    61.385107    61.629563    1109.5739 
  565000   -204884.94    1.5694645 0.0040339539    61.492964    61.376246    61.637821    1127.4071 
  570000   -204639.11    1.6262609 -0.0039759553    61.828618    61.498071    61.592592    1145.3484 
  575000   -205025.96    1.6178965 0.0059048389    61.533854    61.324907    61.296451    1163.1996 
  580000   -204902.44    1.6286987 0.0014822634    61.421731    61.402623    61.376515    1181.1459 
  585000   -204927.45    1.5847918 -0.0034390637    61.226652    61.621977    61.692729    1199.0489 
  590000   -204786.35    1.6123491 0.0021216954    61.513404    61.214065    61.693306    1217.0359 
  595000   -205048.23    1.5980733 0.0017616825    61.221878    61.493942     61.56003    1234.9384 
  600000   -204781.65    1.5705331 -0.0018044432    61.463592    61.483524    61.729406     1252.869 
  605000   -204986.05    1.5652448 0.0019874518    61.340786     61.64414    61.436036    1270.7335 
  610000   -204848.02     1.562321   0.00406966     61.36466    61.590376    61.536398    1288.6637 
  615000   -204767.11    1.5804418 -0.0041384119    61.467753    61.815251     61.34209    1306.4988 
  620000   -204924.25    1.5861074 0.0002580824    61.572258    61.576772    61.397449    1324.3869 
  625000   -204870.32    1.6540356 -6.2721144e-05    61.706209    61.377512    61.359685    1342.2879 
  630000   -204931.87    1.5575331 -0.0059446596    61.615457    61.490139    61.410529    1360.2027 
  635000   -204937.46    1.5839802 -4.4783614e-05    61.559641    61.446836    61.378778    1378.0723 
  640000   -204752.26    1.5825843 -0.0040186744    61.669465    61.563384    61.451819    1395.9363 
  645000   -204952.92    1.5899172 -0.0019574076    61.370621     61.70361    61.357628    1413.8884 
  650000   -204945.92    1.6111507 -0.0021719855    61.341294    61.613722    61.556641    1431.7963 
  655000   -204829.57    1.5514179 -0.00045043478    61.594537    61.495654     61.32749    1449.6731 
  660000   -204876.63    1.5967038 0.00077814711    61.258247    61.839555    61.321181    1467.5118 
  665000   -204894.84     1.609957 0.00090253756     61.65272    61.293968    61.519913    1485.4157 
  670000   -204975.16     1.573486 0.0038608583    61.577142    61.429981    61.420672    1503.2946 
  675000   -204914.71    1.6155667 -0.0021145584    61.396623    61.508929    61.596801    1521.2469 
  680000   -204775.84    1.5923846 0.00062042043    61.586407    61.512736    61.450502     1539.055 
  685000   -205146.24    1.5519803 -0.00028008715    61.349855    61.647407    61.225233    1556.8834 
  690000   -204960.33    1.5971471  0.002328637    61.555018     61.50312    61.297646     1574.785 
  695000   -205111.48    1.6337922 -0.00039015219    61.262651    61.626401    61.404603    1592.7094 
  700000   -205087.22    1.5892428 -0.0027117449    61.386646    61.410335    61.549687    1610.6699 
  705000   -205072.51    1.5759581  0.003591219    61.933098    61.169647    61.116315    1628.5022 
  710000   -204917.71    1.6084439 -0.0010443124    61.500455    61.402637    61.509273     1646.412 
  715000   -204799.01     1.624798 0.0023555835    61.445278    61.472069    61.513436    1664.3226 
  720000   -204984.83      1.63436 0.0025011283    61.386011    61.457595     61.42317    1682.1814 
  725000   -205017.46    1.5855768 -0.0035543368    61.433962     61.51471    61.537236    1700.0434 
  730000    -204996.8    1.6319035 -0.00022903306    61.375832    61.508959    61.419616    1717.9493 
  735000   -204947.56    1.6377634 0.0033909853    61.314247    61.320994    61.567793    1735.7999 
  740000    -205074.3    1.5979831 0.0035352762    61.201102    61.481075    61.454242    1753.5869 
  745000   -205095.08    1.5777981 0.0029774604    61.352504     61.40483    61.467631    1771.4912 
  750000    -205036.3    1.6127721 -0.0038641062    61.386795    61.520066    61.543306    1789.4198 
  755000   -204810.01    1.5809744 0.00018582186    61.330866    61.422697    61.717895    1807.3613 
  760000   -204878.65    1.5629339 0.0014037175    61.508153    61.597893    61.490549    1825.3235 
  765000   -204741.03    1.5743602 -0.0065090387    61.438541    61.640885    61.735961    1843.2099 
  770000   -204841.84    1.6175308 -0.0021585118     61.42639     61.93307    61.504022    1861.0601 
  775000    -204828.6    1.5628695 0.00089496252    61.429871    61.451156    61.508226    1878.9415 
  780000   -204989.37    1.6400271 0.0058509648    61.427048    61.452868    61.391494    1896.8357 
  785000    -205061.9    1.6330726 -0.001322334    61.585558    61.670562    61.166529    1914.6621 
  790000   -205003.81    1.6209934 0.0052960919    61.297901    61.630577    61.492439    1932.5641 
  795000   -204890.18    1.5972538 -0.0033363186    61.677549    61.370784     61.58823    1950.4429 
  800000      -205053    1.5862047 -8.1026334e-05    61.410618    61.347473    61.573442    1968.3774 
  805000   -204992.22    1.6040556 6.1358907e-05    61.367414    61.714027    61.260246    1986.2662 
  810000   -204960.41    1.5990434 -0.0025747291    61.276262    61.705457    61.541822     2004.191 
  815000    -205047.4    1.6173336 -0.0047484248    61.417384    61.550396    61.529003    2022.0775 
  820000   -204972.41    1.5753311 -0.00028997824    61.508122    61.468253     61.43481    2039.9498 
  825000      -204981    1.6036777 0.0019419579    61.545542    61.320836    61.418426    2057.8147 
  830000   -204929.66    1.6477924 -0.00070677152    61.421223    61.443108    61.590209    2075.6623 
  835000    -204642.4    1.6037981 -0.0018497009    61.409054    61.794194     61.52777    2093.5872 
  840000   -204717.37    1.5766726 -0.0057927614    61.453022    61.616339     61.86143    2111.5403 
  845000   -204734.83    1.6222385 0.0046333003    61.348421    61.589722    61.657479    2129.3838 
  850000   -204962.27    1.5887293 0.00085728482    61.309801     61.60365    61.544898    2147.2905 
  855000   -204929.52    1.6257244 -0.0032965237    61.422339    61.485711    61.693675    2165.2033 
  860000   -205084.48    1.5900319 -0.00017913377    61.565519    61.422474    61.428427    2183.1644 
  865000   -204882.35    1.5762784 -0.0010106609    61.794316     61.40284    61.391674     2201.029 
  870000   -204898.11    1.5760535 0.00045000076    61.519159     61.65427    61.438085    2218.9301 
  875000   -204940.02    1.5956053 0.0040278184     61.45693    61.650053     61.33502    2236.8055 
  880000   -205056.87    1.5780548 -0.0031900224    61.362447    61.800097    61.352488    2254.6674 
  885000    -204847.1    1.5747151 0.00077074728    61.074052    61.641285    61.858914    2272.5116 
  890000   -204871.52    1.6090226 -0.0037088295    61.676485    61.457648    61.507388    2290.4287 
  895000   -204836.03    1.5765449 -2.8960873e-05    61.316007    61.654917    61.676017    2308.3406 
  900000   -204819.67    1.6107701 -0.0048314238    61.587608    61.138042    61.943294    2326.2446 
  905000   -204954.02    1.6226152 -0.0034199234     61.43554    61.661639    61.310784    2344.1831 
  910000   -204896.49    1.5542926 0.0019440454    61.362943    61.677242    61.392435    2362.1001 
  915000   -204897.05     1.574285 -0.0069433783    61.732131    61.159161    61.833392    2379.9006 
  920000    -204689.5    1.6030361 -0.00016057444    61.505993    61.634192    61.664246    2397.8021 
  925000   -204532.55    1.6244243 0.00011065272    61.618069    61.588752    61.739426    2415.6421 
  930000   -204509.36    1.5902204 -0.00093364229    61.267743    61.689988    61.884927    2433.6167 
  935000   -204758.03    1.5777245 0.00070235682     61.85705    61.436712    61.418284     2451.443 
  940000   -204909.97    1.5801643 0.0044411047    61.489818    61.459895    61.551021    2469.3343 
  945000   -204718.13    1.5752975 0.0014701377    61.641153    61.612683    61.263458    2487.2379 
  950000   -204838.11    1.5881109 0.00052565139    61.308623    61.588238    61.518256    2505.2165 
  955000   -204833.68    1.5811289 0.0045943463    61.448167     61.58455    61.399811    2523.1467 
  960000   -204825.34    1.5672716 -0.0071140871    61.808501     61.84565    61.378082    2541.0144 
  965000   -204986.26    1.6241601 0.0010032981    61.295795    61.709334    61.491758    2558.8313 
  970000   -204917.18    1.5769113 -0.0023899222    61.557315    61.452805    61.600377    2576.7171 
  975000    -204893.3    1.5846766 -0.0033346894    61.550828    61.453919    61.751216    2594.6557 
  980000   -204822.83    1.5655766 0.0069517319    61.361124    61.641862    61.380177    2612.5879 
  985000   -204877.61    1.5906803 -0.0022337881    61.695145    61.512123    61.341105    2630.4656 
  990000   -204934.65     1.628395 -0.0041506414    61.373815    61.794252    61.421828    2648.3498 
  995000   -204940.26    1.5726578 -0.0015631444    61.334417    61.350898    61.828978    2666.2637 
 1000000   -204907.41    1.6114937 -0.00064767503    61.403598    61.562641    61.605015    2684.1464 
 1005000   -204939.82      1.60197 -0.0055204575     61.52304    61.734932    61.428858    2702.0117 
 1010000   -204755.65    1.6035924 0.0020206696     61.58722    61.497789    61.543382    2719.8788 
 1015000   -204818.84    1.5390213 0.0079161303    61.520415     61.31332      61.5897    2737.7352 
 1020000   -204875.15     1.605924 -0.0003899532    61.634753    61.575897    61.481037    2755.5918 
 1025000   -204822.63    1.6288612 -0.002894645    61.387334     61.67914    61.577294    2773.5488 
 1030000   -204894.87    1.5805821 0.0059311547    61.463076    61.441791     61.43973    2791.4224 
 1035000   -204767.57    1.6119415 0.0010425987    61.478975    61.629173    61.601067    2809.3098 
 1040000   -204798.86    1.5743492 -0.0044091486    61.564334    61.309628    61.851362    2827.1885 
 1045000    -204769.6    1.6050319 -0.003907077    61.563898    61.557713    61.764789    2845.1567 
 1050000   -204973.29    1.5802775 0.0022538572    61.520104    61.229497    61.626202    2863.0206 
 1055000   -204832.21    1.5622351 0.00078066287    61.622871    61.562802    61.368262    2880.9341 
 1060000   -204791.61    1.6022433 -0.0058276701    61.522302    61.731276    61.604236    2898.7947 
 1065000   -204801.74    1.5992232 -0.00013985005    61.483248    61.716217    61.525633    2916.6326 
 1070000    -204814.9    1.6023245 -0.0017442676    61.299514    61.843017    61.563319    2934.5305 
 1075000    -204793.4    1.5237394 0.0018752701    61.268332    61.468671    61.847281    2952.4306 
 1080000   -204944.61    1.6027517 0.0022578556    61.530924    61.339361    61.399965    2970.3718 
 1085000   -204997.22    1.6494705 -0.0026288146    61.516121    61.426408     61.42009    2988.2956 
 1090000   -204807.69    1.6228768 0.0018146153     61.62028    61.376833    61.505132    3006.2086 
 1095000   -204855.94    1.6591631 -0.0019475018    61.660371    61.329531     61.66833    3024.0913 
 1100000    -204947.9    1.5848651 0.0014285536    61.706133    61.230109      61.5513    3041.9562 
 1105000    -204908.3     1.602192 0.0010507086    61.743378    61.429116    61.379446    3059.8491 
 1110000   -204657.71    1.6146221 0.0020231198    61.572714     61.68695    61.492965    3077.7613 
 1115000   -204921.55    1.5564986 0.0051363234    61.458267    61.331534     61.50981    3095.6639 
 1120000   -204785.24    1.6122696 -0.0070351819    61.744232    61.499286    61.752642     3113.541 
 1125000   -204874.41    1.6203774 0.0070266346     61.57669    61.438555    61.376166    3131.4297 
 1130000   -204968.05    1.5853622 0.0022267412     61.57863     61.44954    61.480525    3149.2905 
 1135000   -205014.39    1.5686376 -0.0034505754    61.449804    61.665319    61.553714    3167.1938 
 1140000   -204782.78    1.5965623 0.00078381625    61.487146    61.665906    61.526487    3185.2011 
 1145000   -204891.95    1.6090952 0.0030490062    61.337656    61.477595    61.756649       3203.1 
 1150000   -204818.53    1.6245444 -0.0037124483    61.505316    61.970181    61.520598    3221.0289 
 1155000    -204726.1    1.6292785  0.006514897    61.504459    61.278603    61.769121    3238.8574 
 1160000   -204805.88    1.6456638 -0.00049741036    61.429365    61.652535    61.649243    3256.7503 
 1165000    -204852.6    1.5790965 -0.0020014778    61.336219     61.54964    61.793364    3274.7191 
 1170000   -204952.01    1.6160773 0.0070017574     61.40207    61.457492    61.534499    3292.7081 
 1175000   -204905.14    1.6080675 0.0042952956    61.548336    61.413791    61.422947    3310.5847 
 1180000   -204867.04    1.6120071 -0.0013095335    61.396912    61.723493    61.541581    3328.4627 
 1185000   -204959.97     1.582136 -0.00066292015    61.615913    61.386239    61.584441    3346.3791 
 1190000   -205060.96    1.6115203 0.0016682308    61.431813     61.56855    61.281231    3364.1975 
 1195000   -205129.69    1.6127626 -0.0011615773    61.531529    61.326913    61.376311    3382.0621 
 1200000   -204913.85    1.6223274 -0.0079258164    61.647136    61.593633    61.500704    3399.9735 
 1205000   -205184.25    1.5310481 -0.0029123209     61.21406    61.471651    61.677762     3417.845 
 1210000   -204797.27    1.5964724 0.00029479442    61.492938    61.786747    61.418011    3435.7165 
 1215000   -204735.04    1.5886641 -0.0035568457    61.518548    61.732919    61.672908    3453.6163 
 1220000    -204875.7    1.5379331 0.0099174018    61.525338    61.444736    61.343215    3471.4638 
 1225000   -204616.16    1.6568864 -0.0039051846    61.551449    61.845716    61.558526    3489.2812 
 1230000   -204737.94    1.5418207 0.0072260476    61.583765    61.662747    61.230074    3507.1309 
 1235000   -204938.24    1.5772441 -0.0021451315    61.415003    61.456924    61.587774    3524.9616 
 1240000   -204995.29    1.6018723 -0.0057470671    61.612721    61.587806    61.429334    3542.8203 
 1245000   -205072.93    1.5718431 -0.0040643313    61.186513    61.820714    61.467935    3560.6836 
 1250000   -205003.04    1.5466918 0.0011566392    61.561212    61.628687    61.305918    3578.6035 
 1255000    -204673.8     1.602461 -0.0034476724    61.452938    61.766134    61.821165    3596.4228 
 1260000   -204693.95    1.6294465 0.00086113528    61.426984    61.787411    61.593269    3614.2966 
 1265000   -205047.01    1.6058745 -0.0017426839    61.712838    61.515258    61.271929     3632.193 
 1270000   -204876.07    1.5959566 -0.003285961    61.528361    61.613325    61.589311    3650.0535 
 1275000   -204926.46    1.5814827 0.0060416521    61.544786    61.380528    61.302367    3667.9781 
 1280000   -204847.73    1.5913472 0.0047872364    61.451751    61.403451    61.567746     3685.858 
 1285000   -204812.01    1.6029303 -0.00058315297    61.681744    61.407468    61.593018    3703.7016 
 1290000   -205130.57    1.5830142 -0.0041111442    61.508634    61.353778    61.627445    3721.5701 
 1295000      -204901    1.5930791 6.3335171e-05    61.126283    61.446934    61.862063    3739.4534 
 1300000    -205044.8    1.6051688 0.0070872164    61.480822    61.369171    61.349911    3757.4399 
 1305000   -205069.91    1.5826067 -0.0029154427    61.294293    61.497563    61.682811    3775.3504 
 1310000   -205054.92    1.6253277 -0.0030704474    61.635521    61.400486    61.314154    3793.2263 
 1315000      -205027    1.5989508 0.0046210984    61.392799    61.583925    61.289647    3811.0632 
 1320000   -205158.39    1.5628497 0.0027098512    61.654632    61.303755    61.194586    3829.0142 
 1325000   -205052.22    1.6159554 -0.0080653586    61.564766    61.358227    61.634165    3846.8567 
 1330000   -204989.69    1.5852228  0.000398019    61.322861    61.405469    61.643405    3864.7155 
 1335000   -205002.54    1.5917439 0.0012579455    61.294048    61.600513    61.560776    3882.5927 
 1340000   -205100.18    1.5325068 -0.0041778731    61.325287    61.488924     61.68867    3900.5353 
 1345000   -205135.41    1.5799266 0.0021331344    61.485003    61.456216    61.370256    3918.4305 
 1350000   -204933.52    1.5879836 0.0013763026    61.509705    61.455112    61.532399    3936.3283 
 1355000   -205068.56    1.6249532 -0.0057496771    61.486316    61.555969    61.604367    3954.1272 
 1360000    -205004.5    1.6341591 0.0050398048    61.489993    61.231152    61.461158    3971.9402 
 1365000   -205109.01    1.6191636 -0.0012054638    61.358458    61.435881    61.469639    3989.7598 
 1370000   -205099.28    1.5985035 0.0048471333    61.540248    61.144969    61.410166    4007.5552 
 1375000   -205209.85    1.5585434 0.0040141527    61.491888    61.369982    61.207291    4025.4273 
 1380000   -205232.89    1.5742717 -0.00060181061    61.365899    61.568096    61.260178    4043.3624 
 1385000   -205029.58    1.6124229 0.0033171384    61.453291    61.363036    61.484124    4061.3622 
 1390000      -204990    1.5809445 0.0039013133    61.431943    61.535862    61.365578    4079.2763 
 1395000   -204967.79    1.5816528 -0.00039912696    61.479575    61.374777    61.569845    4097.1812 
 1400000   -204897.21    1.6041986 -0.0044651542    61.658284    61.609968    61.401367    4115.0885 
 1405000   -205174.52    1.5156054 -0.00064584095    61.589034    61.290363    61.428611    4132.9434 
 1410000   -204960.87     1.591871 -0.0047125415    61.537306    61.737242    61.328851     4150.836 
 1415000   -204984.35     1.575652 -0.0020567096    61.662642    61.651431    61.272224    4168.7457 
 1420000   -205052.79    1.5685437 0.00092321826    61.565664    61.163072    61.676869    4186.5795 
 1425000   -205318.89    1.6105021 -1.998135e-06    61.382131    61.473383    61.320618    4204.4971 
 1430000   -204912.53    1.6371068 0.0050947158    61.609492    61.524421    61.342378    4222.3875 
 1435000   -205027.23    1.5944079 -0.0038671765    61.559492    61.466624    61.520476    4240.2687 
 1440000   -205149.92    1.5938749 -0.0007225049    61.409552    61.394145    61.615536    4258.2259 
 1445000   -205107.49    1.6061619 -0.00067948008    61.596499    61.418152    61.487514    4276.1933 
 1450000   -204990.25    1.5779771 0.00028226796     61.71209    61.329028    61.398759    4294.0743 
 1455000   -205149.55    1.5980945 -0.0018011262    61.411979    61.510741    61.408107    4312.0234 
 1460000    -205230.5    1.5883333 -0.0057344277    61.511007    61.172428    61.657898    4329.9132 
 1465000   -205172.16    1.5735692 -0.0056226546     61.53413    61.443256    61.445747    4347.7627 
 1470000   -205016.53    1.6309366 -0.0021458777    61.772705    61.498189    61.248777    4365.6918 
 1475000   -204925.38    1.6299953 0.0029346598    61.669909    61.453079    61.339528    4383.5348 
 1480000   -205249.23    1.5898082 -0.005588474    61.315446    61.526041    61.766721    4401.4395 
 1485000   -205078.89    1.6357557 -0.00041064687    61.736764    61.500855    61.241649    4419.3093 
 1490000   -204861.24    1.5986629 0.00095197472    61.422338    61.603135    61.546115    4437.1982 
 1495000   -204871.94    1.5921288 -0.0012527478    61.698819    61.352986    61.507335    4455.0637 
 1500000   -205047.11    1.6297712 -0.0045756748    61.646446    61.515331    61.602379    4472.9569 
 1505000   -205022.35    1.6104085 0.0057297474     61.32368    61.414313    61.570425    4490.8499 
 1510000   -204957.93    1.5976136 0.0010737739     61.54079    61.302731    61.745747    4508.7446 
 1515000   -205035.94    1.5959121 0.0030129902     61.35596    61.255504    61.794496    4526.6923 
 1520000   -204825.19    1.6280571 0.0035774033    61.596878    61.651386    61.342462    4544.6004 
 1525000   -204857.24    1.5966335 -0.005657479     61.77601     61.35033    61.713681     4562.467 
 1530000   -204782.84    1.6955204 0.00049614488    61.427741    61.446607    61.649118    4580.3996 
 1535000   -204966.83    1.6044115 -0.00098213158    61.431159    61.431676    61.763038    4598.3244 
 1540000      -204985    1.6204418  0.001482912    61.526674    61.621585    61.304988    4616.2192 
 1545000   -204876.07    1.6076264 -0.008822059    61.591688    61.501515    61.610588    4634.1852 
 1550000   -204959.76    1.5991558 -0.0036329498    61.633589    61.455016    61.503984    4652.0379 
 1555000   -205160.72    1.6250113 5.5433223e-05    61.335924    61.390769    61.611092    4669.8658 
 1560000   -205001.05    1.6156479 0.0048732148    61.304754    61.557028    61.313995    4687.6998 
 1565000   -205113.77    1.5948913 -0.0016845465    61.519553    61.399794    61.569916    4705.6672 
 1570000   -204837.95    1.6317635 -0.004352992    61.843453    61.495716    61.620665    4723.5611 
 1575000      -204738    1.6310123 -0.0029519117    61.390723     61.84856     61.69638    4741.4252 
 1580000   -204769.37    1.5947933 -0.0048696803    61.739927    61.608482    61.640929    4759.3292 
 1585000   -204777.54    1.5675072 0.0045283142    61.597223    61.630186    61.346471     4777.153 
 1590000   -204920.69    1.6075731 -0.00010904372    61.615752    61.476152    61.429965    4795.0294 
 1595000   -204855.36    1.5970943 -0.0043960425    61.617973    61.489029      61.7189    4812.9944 
 1600000   -204893.08    1.6128727 0.0029140545    61.484579     61.82424    61.289022     4830.864 
 1605000   -204901.53    1.6022638 0.00015169065    61.488438    61.668136      61.5018    4848.7585 
 1610000    -204934.4    1.5949304 -0.00022914934    61.418203    61.471806    61.779964    4866.7212 
 1615000   -204927.12    1.5786521 -0.0057139884    61.599218    61.743682    61.445472    4884.5841 
 1620000   -204706.95    1.6003333 0.0062762794    61.691629    61.384261    61.513172    4902.4094 
 1625000   -204805.45    1.6582557 0.00083486077    61.467486    61.782563     61.49368    4920.2311 
 1630000    -204752.1    1.6138053 -0.0028900516     61.48091    61.763919    61.643197    4938.0892 
 1635000   -204643.05    1.6213411 -0.0013431994    61.631005    61.602357    61.601468    4955.9363 
 1640000   -204965.25     1.587718  0.001837723    61.536141    61.446591      61.4156    4973.8108 
 1645000   -205001.02    1.6325112 0.0043317424    61.429561    61.294278     61.48332    4991.6327 
 1650000   -205101.02     1.587974 0.0015933092    61.448656    61.442911    61.404944    5009.5192 
 1655000   -204848.96    1.5972638 -0.00028522535    61.558186    61.543473    61.535348     5027.335 
 1660000   -204727.12    1.5657038 -0.0033939281    61.597162    61.770359    61.372607    5045.3033 
 1665000   -204795.32    1.5809633 -0.0035469882    61.329258    61.800733    61.658988    5063.1879 
 1670000   -204771.73    1.6297816 -0.0026760293    61.511422    61.689253    61.571327    5081.0393 
 1675000   -204924.92    1.5839526 0.0023903983    61.410423    61.660882    61.454129    5098.9438 
 1680000   -204726.38    1.5709466 -0.0023863296    61.448945    61.703753    61.738621     5116.932 
 1685000   -204889.29    1.5751825 0.0045396638     61.36034    61.593019    61.395192    5134.8075 
 1690000   -204793.43    1.5536464 0.0024946351    61.320459    61.774378    61.343916    5152.7181 
 1695000   -204631.71    1.6546701 0.00063906025    61.376292    61.674422    61.690112    5170.5079 
 1700000   -204769.18    1.6386637 0.0046192414    61.397361    61.734393    61.458328     5188.397 
 1705000   -204903.51    1.6004935 0.0016019232     61.25652     61.50406    61.708694    5206.2934 
 1710000   -204946.04    1.6087399 -0.00037852096    61.126123    61.745635    61.550227    5224.1631 
 1715000   -205098.26    1.6101403 0.00040128545    61.495056    61.583425    61.298584    5242.0029 
 1720000   -204737.14    1.5768492 0.0028591121    61.629386    61.621097    61.182007    5259.8814 
 1725000   -205026.68    1.5615619 -0.0039442607    61.413226    61.451251    61.595339    5277.7963 
 1730000   -205054.24    1.5689387 0.0013443941    61.406603    61.531106    61.155893    5295.6925 
 1735000   -205192.69    1.5870505 -0.0038157494    61.429648    61.369049    61.246007    5313.6639 
 1740000   -204939.43     1.642952 0.0013542917    61.616657    61.302922    61.298007    5331.5028 
 1745000   -204896.57    1.6466691  0.001639696    61.311695    61.493032    61.587637    5349.3435 
 1750000   -205217.16    1.6071303 -0.0012823466    61.712339    61.340559    61.203623    5367.2268 
 1755000   -205014.84    1.5764807 0.0026135236    61.450555    61.422554    61.515114    5385.1127 
 1760000   -204896.67     1.592281 0.0025212219    61.573262      61.4506    61.472962    5403.0083 
 1765000   -204731.07    1.6250273 0.0028948847    61.419602    61.613056    61.584312    5420.8941 
 1770000   -204684.67    1.5893859   0.00156888    61.342835    61.486563    61.769286    5438.7667 
 1775000   -204751.88    1.5766069 0.0061593349    61.360112    61.544522    61.415447    5456.6393 
 1780000    -205076.8    1.6142363 -0.0012932545    61.488097    61.460204    61.339301    5474.5712 
 1785000   -204833.44    1.6416191 -0.002136596    61.455301     61.60925    61.489067    5492.5431 
 1790000   -204911.65    1.5828363 -0.0031848403    61.534528    61.567926    61.588418    5510.4554 
 1795000   -204936.02     1.586227 0.0004257289    61.329142    61.477794     61.64905    5528.3834 
 1800000   -204916.97    1.5661512 -0.00046699404    61.591959    61.591667    61.345019    5546.2564 
 1805000   -204944.22    1.5523657 -0.00078245658    61.762089    61.265355     61.45339    5564.1448 
 1810000   -204995.23    1.6163014 0.0082398619    61.212351    61.526687    61.379204    5582.0407 
 1815000   -204885.91    1.6172494 -0.0032084301    61.641231    61.529827    61.474133    5599.9595 
 1820000   -204966.13    1.6324716 0.0028634222    61.639351    61.456721    61.333365    5617.8485 
 1825000   -204877.94    1.5908084 0.0025095404    61.370973    61.397497    61.611722    5635.7831 
 1830000   -204771.24    1.5858541 0.00079059439    61.638811    61.403381     61.48717    5653.7168 
 1835000    -205153.4     1.630347 0.0028768123    61.421131    61.443736    61.379639    5671.6047 
 1840000   -205151.33    1.6226253 -0.00028174823    61.464174    61.540377    61.351838    5689.4876 
 1845000   -204820.31    1.6188168 -0.0031875031    61.447598    61.524953    61.686543    5707.3728 
 1850000   -204661.09    1.6141148 -0.0011763525    61.609851    61.730705    61.458711     5725.264 
 1855000   -204753.62    1.6061402 -0.0029524196    61.909494    61.722202    61.272205    5743.1283 
 1860000   -204788.33    1.6096646 -0.00059976153    61.572921    61.607903    61.405851    5760.9447 
 1865000   -204917.78     1.627625 -0.0021445846    61.450596    61.492792    61.447464    5778.7301 
 1870000   -204758.09    1.6233538 0.0048350196    61.442393    61.402607    61.691346    5796.6269 
 1875000   -204632.29    1.6237429 0.0034427694    61.637867    61.581814    61.520418    5814.5275 
 1880000   -204637.78    1.6158962 0.0009478042    61.804116    61.588906    61.536424    5832.5375 
 1885000   -204629.71    1.5881013 -0.0014352468    61.749799    61.425053    61.708053    5850.3468 
 1890000   -204679.64    1.6006091 -0.00041689767    61.696657    61.613416     61.71318    5868.2222 
 1895000   -204838.73     1.538896 -0.004297248    61.709307    61.495059    61.615298    5886.0586 
 1900000    -204903.3    1.5705808 -0.00060474977    61.638891    61.461927    61.465853    5904.0156 
 1905000   -204737.08    1.6161026 0.00099533519    61.410903    61.587489    61.752742    5921.9151 
 1910000   -204665.45    1.6339966 -0.0044693576    61.745734    61.635061     61.58542    5939.8148 
 1915000   -204602.58    1.5529541 -0.0017400369    61.484002    61.622394    61.696091     5957.682 
 1920000   -204784.78    1.5682957 -0.00076835188      61.4611    61.612694    61.481865    5975.5392 
 1925000   -204690.17    1.6245431 -0.0026519178    61.530036    61.678802    61.621582    5993.3669 
 1930000   -204730.41    1.6156859 0.00098652098    61.577967    61.347142    61.756209     6011.192 
 1935000    -204952.7    1.6063472 -0.0035489258    61.505183    61.445076    61.659873    6029.0768 
 1940000   -204700.13    1.6316814 0.0023278499    61.547327    61.235116    61.711512    6046.9167 
 1945000   -204658.31    1.5566649 -0.0084356046    61.570148    61.750615    61.498277    6064.8692 
 1950000   -204789.48     1.566178 0.0028784338    61.721529    61.413189     61.26211    6082.7106 
 1955000    -204828.8    1.5683253 0.0038302738     61.46103    61.468189    61.461898    6100.5878 
 1960000   -204651.46    1.5768515 -0.0034584744    61.629989    61.484478    61.813421    6118.4779 
 1965000   -204537.88     1.627776 -0.0015015563    61.528784    61.617129    61.831688    6136.3008 
 1970000   -204612.65    1.6172749 -0.0028541481    61.466849     61.74659    61.938258    6154.1245 
 1975000   -204510.86    1.6157191 0.0025074824     61.66572    61.735943    61.614432    6172.0218 
 1980000   -204360.21    1.5872005 -0.0015253124    61.805945    61.610697    61.646693    6189.9292 
 1985000   -204715.76     1.645732 -0.00068705241    61.565803    61.439192    61.656865    6207.8519 
 1990000   -204559.47    1.6193824 -0.0030111377    61.778596    61.601371    61.561036    6225.7379 
 1995000   -204779.43    1.6113435 -0.0002135079    61.625642    61.499112    61.536736    6243.5393 
 2000000   -204643.14    1.5753424 -0.00037534869    61.631473    61.578757    61.566935    6261.4057 
 2005000   -204560.27    1.6144235 -0.0012616772    61.618008    61.511442     61.84159    6279.2182 
 2010000   -204712.33     1.641302  0.002224053    61.701303    61.678636     61.46787    6297.0879 
 2015000   -204503.73    1.5695088 -0.0010269881    61.574341     61.77632     61.65612    6314.9971 
 2020000   -204755.14     1.609349 0.0020541835    61.456375    61.496979      61.7391    6332.8541 
 2025000   -204969.79    1.6081496 -0.0014182913    61.336256    61.483155    61.707871    6350.6995 
 2030000   -204716.57    1.6283619 -0.00064872603    61.579182    61.597604    61.539291    6368.6861 
 2035000   -204706.82    1.6031145 0.0043675279    61.655492     61.63186     61.33469    6386.5954 
 2040000   -204714.28    1.5733732 -0.0043823378    61.695359    61.598218    61.576768    6404.5376 
 2045000   -204976.17    1.6321121 -0.00090669111    61.600082    61.507258     61.37165    6422.4454 
 2050000   -204736.95    1.5875104 -0.000819106    61.682381    61.537454    61.599698    6440.2761 
 2055000   -204698.86    1.5783065 -0.0025878931    61.731423    61.583075    61.618984    6458.1178 
 2060000   -204710.37     1.594157 0.0025433723    61.441678    61.680972    61.530445    6475.9753 
 2065000   -204667.72    1.5941642 0.00019864348    61.701443    61.592076    61.466425    6493.8512 
 2070000   -204596.38    1.5676054 0.00047420484    61.694756    61.654411    61.571966    6511.7562 
 2075000   -204823.31    1.5654739 0.0014489441    61.390047    61.713508    61.432403    6529.6057 
 2080000   -204787.35    1.5756847 0.0063722221    61.659477    61.351808    61.361902    6547.4465 
 2085000   -204864.73    1.5516566 -0.0010751411    61.663319    61.594529    61.428069    6565.2967 
 2090000   -204841.36    1.6006291 0.0032461684    61.479477    61.524961      61.3869    6583.2155 
 2095000   -204765.85    1.5665585 0.0013778841    61.468252    61.520907    61.605717    6601.0458 
 2100000   -204761.63      1.62007 -0.0011234342    61.568242    61.710048    61.492461    6619.0389 
 2105000   -204960.85    1.5527757 -0.0028366305    61.337548    61.691563    61.567015    6636.9612 
 2110000   -205091.65    1.6294781 0.0030740322    61.276368    61.485169    61.586029    6654.8458 
 2115000   -204843.98    1.6350783 0.0060159301    61.240272    61.459066    61.702497    6672.7544 
 2120000      -204923    1.6195453 0.0023262848    61.506726    61.516552     61.48747    6690.5967 
 2125000   -205041.28    1.5830614 0.0080354669    61.160164    61.352171    61.538622     6708.418 
 2130000   -204918.44    1.6303577 -0.0042809677    61.484578    61.456838    61.762515    6726.2985 
 2135000   -204995.23    1.6319527 -0.002823654    61.384414    61.320451     61.88396    6744.1971 
 2140000   -204759.19    1.5912391 0.0032861684    61.524511    61.548837    61.398709    6762.1361 
 2145000   -204925.85    1.6219054 -0.00085382917    61.905758    61.475816    61.250957    6780.0006 
 2150000   -204794.02    1.5827698 -0.0010978363     61.55529    61.584521     61.45166    6797.9145 
 2155000   -204876.11    1.5651034 -0.0035726377    61.548107    61.495468    61.530448    6815.9281 
 2160000   -204994.05    1.6143931 0.00094246771    61.487515    61.556547    61.400419    6833.8317 
 2165000   -204933.23    1.5814735 0.00099111265    61.549498    61.572867    61.325974    6851.7293 
 2170000   -204989.55    1.5940448 0.0012985936    61.370687    61.618368     61.31176    6869.7055 
 2175000   -205035.43    1.5944141 0.0040202766    61.513268    61.409411    61.400863    6887.6666 
 2180000   -205134.33    1.5917798 0.00055200446    61.417702    61.443338    61.349528    6905.6127 
 2185000    -205135.5    1.6298544 0.0018342601    61.581454    61.271543     61.36269    6923.4764 
 2190000   -205007.61    1.5964761 -0.0079853429    61.557946    61.551736    61.689152     6941.386 
 2195000   -204824.41    1.6062366 -0.0020217329    61.728705    61.503286    61.583841    6959.2317 
 2200000   -204863.26    1.5774845 -0.0043977714    61.713023     61.66572    61.336804    6977.1018 
 2205000   -204920.28    1.6551076 0.0014174406    61.630964    61.456764    61.477473    6995.0726 
 2210000   -204778.97    1.6345517 -0.0023194805    61.733685    61.474464    61.563734    7012.9725 
 2215000   -204929.81    1.6083091 -0.0024569216    61.572934    61.528772    61.480441    7030.8907 
 2220000   -204749.53     1.580819 -0.0021569912    61.461695     61.57534    61.677835    7048.7672 
 2225000   -204635.48    1.5832954 0.0024428422    61.492433    61.772986     61.46879    7066.5581 
 2230000   -204771.53    1.6142845  0.006205777    61.265936    61.455959    61.669193    7084.3558 
 2235000   -204560.15    1.6199905 -0.00036520213    61.632043    61.658555    61.655349    7102.2668 
 2240000   -204588.12    1.6030724 -0.0062457407    61.657502    61.706099    61.655484    7120.1274 
 2245000   -204601.19    1.6205452 -0.0014093826    61.714149     61.39917    61.798364    7138.0164 
 2250000   -204537.12    1.6277858 0.0051943881    61.660448    61.772332    61.400212      7155.91 
 2255000   -204582.41    1.5772199 -0.0067762187    61.953866    61.586944    61.624823    7173.7287 
 2260000   -204728.58    1.5795923 0.0047557058     61.66966    61.699477    61.360973    7191.6647 
 2265000   -204719.44    1.5999846 -0.0042970486     61.49569    61.842654    61.514225    7209.5915 
 2270000   -204920.25    1.6051291 0.00043666209    61.472204     61.80892    61.316149    7227.4399 
 2275000   -204722.74      1.58692 -0.00050222822    61.739523    61.515464    61.539887    7245.2689 
 2280000   -204935.52    1.6015715 0.0006800849    61.592636    61.491174    61.471324    7263.1271 
 2285000   -204852.35    1.6002392 -0.0003404687     61.42298    61.577575    61.722387    7281.0248 
 2290000   -204982.22    1.5985027  0.001568191    61.578265    61.325185    61.460528    7298.9502 
 2295000    -204844.3    1.5778256  0.005454696    61.467977     61.51711     61.39753    7316.9049 
 2300000   -205047.23    1.5819105 0.0041287614    61.434558    61.427999    61.253813    7334.8353 
 2305000   -204861.69    1.5783914 0.0010385841    61.179267    61.295694    61.803128    7352.6772 
 2310000   -204888.06    1.6362061 -0.0062220567    61.668122    61.458709    61.697444    7370.5734 
 2315000    -204876.2    1.5875364 -0.0033758244    61.586924    61.464152    61.515908    7388.4149 
 2320000   -204652.33    1.6025705 -0.0033804792    61.478677    61.524887    61.761273     7406.244 
 2325000   -204829.55    1.6014595 0.0064174231    61.531713    61.451049     61.31217    7424.0965 
 2330000   -204888.38    1.5795075 0.0027812522    61.381234    61.571997    61.360184    7442.0027 
 2335000   -204710.51    1.5438539 -0.00098144658    61.546997    61.644707    61.579066    7459.8284 
 2340000   -204729.57    1.5848734 0.0016058205    61.657498    61.602402    61.386363    7477.6542 
 2345000   -204710.68     1.535687 6.5590593e-05     61.80596    61.374995    61.618626    7495.5566 
 2350000   -204811.93    1.6077216 -0.0024984075    61.930007     61.47843    61.498072    7513.4887 
 2355000   -204673.97    1.5832345 0.00076866087    61.529457    61.930814    61.395306     7531.344 
 2360000    -204905.1    1.5956737 0.0035133431     61.63308    61.557871    61.375531    7549.2058 
 2365000   -204934.61    1.5796496 0.0028263313    61.534524    61.323117    61.514954    7567.0657 
 2370000   -204833.61    1.5592534 -0.0044241421    61.552532    61.638555    61.603171    7584.9492 
 2375000   -204865.13    1.6160176 0.0034848783    61.295227    61.579743    61.608323     7602.875 
 2380000   -205003.98    1.5682023 -0.00098582935    61.337813    61.441901      61.6733    7620.8832 
 2385000   -204813.19    1.5874171 -0.00069407868    61.775402    61.556389    61.332976    7638.7347 
 2390000   -204802.35    1.5789932 0.0027661059    61.628088    61.290057     61.57476     7656.664 
 2395000   -204905.93    1.5641989 -7.8829882e-07    61.489165    61.559899    61.441815    7674.5056 
 2400000   -204737.01    1.6284212 -0.0022032942    61.349656    61.599729    61.692094    7692.4161 
 2405000   -204959.21    1.5739191 0.00080481908    61.658143    61.502932    61.256924    7710.3479 
 2410000   -204799.66    1.6342886 0.0015986024    61.519258     61.50619    61.606347    7728.2888 
 2415000   -204889.23    1.5386874 0.0022291764    61.714178    61.429569    61.487921     7746.123 
 2420000   -204891.02    1.5569126 -0.0049628941    61.515731    61.414291    61.618508    7764.0212 
 2425000   -204945.59    1.5989204 0.0021850668    61.347415    61.349592    61.700064    7781.8851 
 2430000   -204994.37    1.5722396 0.0028112439    61.379928    61.485368    61.481649    7799.7297 
 2435000   -205012.07    1.5992452 -0.0016022747    61.512343    61.500711    61.606368    7817.5992 
 2440000   -204881.35    1.6095506 -0.00024646865     61.41432    61.618808     61.58935    7835.5112 
 2445000   -204760.15    1.5710624 0.0032944179    61.757843    61.596519    61.167069    7853.3572 
 2450000   -204999.56     1.590656 0.0063723078    61.137906    61.532592    61.460436    7871.2292 
 2455000   -204979.05    1.5748677 -0.0010291284    61.663643    61.458303    61.419839    7889.0711 
 2460000   -205055.81    1.6190905  0.003634181    61.395598    61.422104    61.404638    7906.9514 
 2465000   -204997.89    1.6499959 -0.00057359286    61.375886     61.59899    61.552337    7924.8309 
 2470000   -205063.84    1.5998625 8.9839814e-05    61.590731    61.479486    61.275301     7942.804 
 2475000   -205162.88    1.6045239 -0.0018945522    61.332333    61.469869    61.421057    7960.7073 
 2480000   -205170.15    1.6016106 0.0035733524    61.396431    61.618301    61.175763    7978.7037 
 2485000   -204838.75     1.596795 -0.0018975059    61.608924    61.524179    61.416418    7996.6619 
 2490000   -204733.36    1.6009759 -0.0012640636    61.479812    61.658489    61.541863    8014.5192 
 2495000   -204770.13    1.5762063 0.0022158706    61.604344    61.511771    61.375058     8032.401 
 2500000   -204649.84    1.5847608 0.0024140603    61.665685    61.556521    61.425514    8050.3295 
 2505000   -204747.83    1.5751562 0.00039813756    61.573421    61.433946    61.566897    8068.1986 
 2510000    -204873.7    1.6068279  0.003684186    61.370093    61.490131    61.492268    8086.0996 
 2515000   -205043.63     1.577248 -0.0030866252    61.522665    61.477937    61.282097    8103.9846 
 2520000   -204902.08    1.6087074 -3.9814024e-05    61.654314    61.526409    61.275952    8121.8994 
 2525000    -204976.4    1.5477388  0.001512672    61.643436    61.453893    61.385538    8139.7686 
 2530000   -204887.69    1.6175349  0.001648133    61.637816    61.507396    61.413873    8157.6478 
 2535000   -204934.36    1.5920112 0.0019205857    61.487618    61.464784    61.477233    8175.4875 
 2540000   -204961.77    1.6017943  -0.00122825     61.38173    61.529016    61.666247     8193.426 
 2545000   -204840.14    1.6043738  0.002766507    61.749044    61.352181    61.432886    8211.3313 
 2550000   -204842.46    1.5908268 -0.0015757725    61.916394    61.247755    61.543249    8229.3251 
 2555000   -204890.69    1.6214691 -0.0057554602    61.487431    61.581229    61.678162    8247.1725 
 2560000   -204902.26    1.6155284 -0.0052959193    61.380728    61.776061    61.516236    8265.0426 
 2565000   -204720.04    1.5590424 0.0096762995     61.65538    61.261081    61.376967    8282.8773 
 2570000   -204865.86    1.6493294 0.0048216262    61.618788    61.331147     61.59408    8300.8059 
 2575000   -204960.32    1.5730195 -0.0070303974     61.29279    61.457602    61.884793    8318.6427 
 2580000   -204914.32    1.6014693 -0.0010700411    61.452763    61.635588    61.513849    8336.5372 
 2585000   -205025.62    1.5838229  0.001435549     61.43612    61.327937    61.483661    8354.4447 
 2590000   -204737.11    1.6102235 -0.001219547    61.656763    61.455754    61.614272    8372.4035 
 2595000   -204809.15    1.6218603 0.0017562652    61.522463    61.279682    61.731793    8390.2861 
 2600000   -204707.64    1.6081549 -0.0010016015    61.525177    61.692739    61.542221    8408.2073 
 2605000   -204731.45    1.5857413 -0.0031982752    61.478956     61.78898    61.549315    8426.1051 
 2610000   -204912.33     1.568604 -0.0082427723    61.602016    61.593224     61.49483    8444.0643 
 2615000   -204693.84    1.6128868 0.0016179077     61.54886    61.480192    61.491153     8461.932 
 2620000   -204887.72    1.6146191 -0.00055024652    61.235322    61.828813    61.421981    8479.8283 
 2625000    -204772.1    1.5992168 -0.00041063326    61.518258    61.565911    61.629602    8497.6989 
 2630000    -204756.5    1.5731712 0.00018408689      61.5182    61.568121    61.584292    8515.6433 
 2635000   -204703.08    1.5588153 -0.0059458501    61.697996    61.656693    61.620792    8533.6247 
 2640000   -204776.19    1.6245718 -0.0033322004     61.66202    61.533084    61.499963    8551.4815 
 2645000   -204735.06    1.5899439 -0.002166527     61.69038     61.23997    61.715774    8569.4004 
 2650000   -204848.17    1.5884469 -0.010773556    61.659991    61.488072    61.758764     8587.262 
 2655000   -204761.45    1.5655053 0.0012812049      61.4587    61.554391    61.562731    8605.1297 
 2660000    -204805.2    1.5971145 -0.0037277876    61.730283    61.674906    61.320976    8622.9881 
 2665000   -204804.82    1.5744791 -0.0014721393    61.762666    61.325158    61.431653    8640.9086 
 2670000   -204822.45    1.6412167  0.007816849    61.736628    61.368523    61.217145    8658.8097 
 2675000   -204935.92    1.6115368 -0.0086907894    61.614233    61.722717    61.499886    8676.6435 
 2680000   -204952.03     1.575087 0.00065096719    61.740838    61.381629    61.339698    8694.4796 
 2685000   -205011.87    1.6340652 -0.0022859068      61.5659    61.547643    61.328511    8712.3296 
 2690000   -204885.53    1.5746984 -0.00074302825    61.531125    61.594674    61.476772    8730.1848 
 2695000   -204711.95    1.5968584 -0.0031401559    61.648278    61.530771    61.638298    8748.0844 
 2700000   -205012.48    1.5923435 0.00057019348    61.695684    61.418531    61.292487    8766.0505 
 2705000   -204902.54    1.5882695 -0.0016693816    61.470153    61.188128    61.814603    8783.9417 
 2710000   -204725.59    1.5722007 -0.0029375006    61.681949    61.549125    61.463726    8801.7978 
 2715000   -205047.73    1.6009997 0.0024053606     61.30529    61.466061    61.557647    8819.6679 
 2720000    -205066.8    1.5787796 -0.00087996415    61.376502    61.372688     61.51151    8837.5649 
 2725000   -204993.12    1.5610229 -0.00011350981    61.136288    61.659973    61.634021    8855.4321 
 2730000   -204999.82    1.5937863 -0.0024212014    61.249681    61.666647    61.578926    8873.3701 
 2735000   -205205.98    1.5754186 0.0012715172    61.394682    61.448951    61.392289    8891.2959 
 2740000   -204946.22    1.6006654 -0.0045889886    61.605713    61.369381    61.559435      8909.26 
 2745000   -204825.56    1.5966486 0.0037543615    61.372368    61.563547    61.276784    8927.1862 
 2750000   -204704.03    1.6300729 0.0068833254    61.446763    61.450564     61.51614    8945.1023 
 2755000   -204870.72    1.6243792 -0.010648853    61.420717     61.72414     61.76316    8962.9217 
 2760000   -204759.74    1.5877672 -0.0030975087    61.329722     61.63488    61.746701    8980.8084 
 2765000   -204707.78    1.6590496 -0.0044689105    61.490647    61.604251    61.667426     8998.709 
 2770000   -204713.04    1.5750474 -0.00018044374    61.434187    61.642848    61.355647    9016.5433 
 2775000   -204848.18    1.6190424 -0.0058594198    61.467262    61.638282    61.570207    9034.4102 
 2780000    -205065.7    1.5835898 -8.7530388e-05    61.553225    61.125123    61.552439     9052.379 
 2785000   -204770.76    1.6353518 -0.003204273    61.650604    61.571857     61.45241    9070.2464 
 2790000   -204768.26    1.6271431 8.6549557e-06     61.48839    61.573496    61.492092    9088.1367 
 2795000   -204905.79    1.5839617 -0.0014038963    61.457829    61.653922    61.453315    9106.0692 
 2800000   -204958.05    1.5988135 0.0043549503    61.420442    61.473043    61.365175    9123.9743 
 2805000   -204915.78    1.6225011 -0.001309785    61.481029    61.630163    61.361123    9141.8589 
 2810000   -204848.98    1.5892917 0.00034764318    61.387584    61.637449    61.471336    9159.8426 
 2815000   -204981.19    1.5681046 0.00033006241    61.387082    61.402736    61.595653    9177.7766 
 2820000   -205046.19    1.5803038 -0.0042386468    61.427209    61.389638    61.587061    9195.7667 
 2825000   -204938.91    1.6155934 0.0027018308    61.509839    61.295136    61.637851    9213.6604 
 2830000   -204782.94    1.6202218 -0.0078218698     61.64453    61.544501    61.622701    9231.5325 
 2835000   -205187.34    1.6146295 -0.0012586942    61.445724    61.271924    61.565252    9249.4666 
 2840000    -204813.9    1.6169228 0.0068547254    61.450594    61.546501    61.494184    9267.3341 
 2845000   -205006.75    1.5962656 -0.0037170725    61.525282    61.412382    61.532416    9285.3201 
 2850000   -204925.62    1.5584095 0.0025376785    61.507325    61.580578     61.44923    9303.2856 
 2855000   -205028.93    1.5842144 0.00045056326    61.525439    61.375333    61.544235     9321.174 
 2860000   -205309.88    1.5825915 -0.0024754847    61.334506    61.371613    61.461444    9339.1241 
 2865000   -205103.66     1.581618 0.0029540672    61.390109     61.28093    61.522417    9357.0428 
 2870000   -204928.67    1.6362422 0.0037553271    61.381324    61.442818    61.532494    9374.9881 
 2875000    -204984.3    1.5864641 0.0027565151    61.370244    61.506114    61.389171    9392.8935 
 2880000   -205033.52    1.6320581 0.00028959716    61.469265    61.532207    61.341512    9410.8897 
 2885000   -205007.84    1.5917198 0.00098364025    61.385815    61.363754    61.583238    9428.7892 
 2890000   -205091.18    1.6108547 -0.0024804301    61.436602    61.339498    61.595216    9446.7167 
 2895000   -205015.58    1.5833447 0.00041600732    61.314846    61.451238     61.72192    9464.6377 
 2900000   -204933.25    1.5715959 -0.0012110287    61.505578    61.677272    61.449172     9482.473 
 2905000   -205116.87    1.5992843 -0.0039776136    61.664722    61.346597    61.477764    9500.4088 
 2910000   -205279.47    1.5511926  0.003485399    61.283845    61.421749    61.360625    9518.2831 
 2915000   -205196.15    1.5993637 -0.0020737648    61.293264    61.398494    61.619824    9536.1627 
 2920000   -205122.11    1.5986023 -0.0016068329    61.514715    61.317507    61.484303    9554.0169 
 2925000    -205077.6    1.5724246 -0.00094025754    61.670961    61.301555    61.432278    9571.9309 
 2930000   -204967.88     1.588249 -0.0060447498    61.475114    61.685739    61.686715    9589.7952 
 2935000   -204978.84    1.6275309  0.010461729    61.098826     61.77506    61.352804     9607.673 
 2940000   -204861.47    1.6038403 0.00094904674    61.626524    61.574193    61.387486    9625.5814 
 2945000   -204752.68    1.6320287 0.0016754179    61.456663    61.472839    61.643815    9643.4887 
 2950000   -204941.71    1.5681667 -0.0046677018    61.474861    61.505138    61.727851    9661.4028 
 2955000   -204855.29    1.5602989 0.0063748563    61.252479    61.656584    61.433266    9679.3151 
 2960000   -204945.45    1.6023208 -0.0057155913    61.340059     61.70891    61.714487    9697.2405 
 2965000   -204774.66    1.5741923 -0.0056264426    61.712697    61.430728    61.530971    9715.0776 
 2970000   -205025.33    1.5909933  0.003842825    61.389384    61.442777    61.503261    9732.9255 
 2975000   -205062.38    1.5545648 -0.00080746533    61.377308    61.399093    61.570569    9750.7646 
 2980000   -205034.01    1.6120708 -0.0055468482    61.606586    61.584118    61.361467    9768.6432 
 2985000   -205020.63    1.6038307 -0.0033467621     61.46654    61.551183    61.624461    9786.5306 
 2990000   -205065.39    1.5658646 -0.0025224422    61.354292    61.552728    61.517559    9804.4847 
 2995000   -205058.91     1.664615 0.0011135704     61.47506    61.401344    61.474685    9822.4116 
 3000000      -205003    1.6201158 -0.000286239    61.531859    61.661792    61.336811    9840.2654 
 3005000    -204857.6    1.5890043 -0.0060432642    61.581467    61.647546     61.46324    9858.1371 
 3010000   -205036.47    1.5950414 -0.0027842618    61.373721    61.454556    61.553003    9876.0618 
 3015000   -204921.04     1.598283 3.0588149e-05    61.508912    61.465325    61.474724    9893.9278 
 3020000   -204959.98    1.6070029 -1.5751478e-05    61.614247    61.442186    61.320386    9911.8783 
 3025000   -205028.26     1.586446 0.0035591373    61.471608    61.346671    61.419684    9929.7794 
 3030000   -204996.06    1.6298756 0.0018152015    61.475791    61.364199    61.520398    9947.7159 
 3035000   -204965.89    1.6067963 -0.0044353921    61.598812    61.511594    61.598568    9965.6842 
 3040000   -204968.72    1.5849838 -0.00034263987    61.450301    61.645775    61.531165    9983.5847 
 3045000    -204953.9    1.6163881  0.001642789    61.456119    61.437921     61.55501    10001.438 
 3050000    -204805.1     1.618971 -0.0064527717     61.59871    61.691901    61.581462    10019.282 
 3055000   -204829.88    1.6069671 -0.0046527384    61.652937    61.481751     61.75408    10037.225 
 3060000   -204901.31    1.6285678 0.0018644663     61.31354    61.696806    61.566657    10055.167 
 3065000    -205004.4    1.5756053 -0.00019455454    61.541391    61.422394    61.535878    10073.021 
 3070000   -204871.89     1.567764 0.0025905149    61.662441    61.348199    61.570886    10090.902 
 3075000   -204983.65    1.5971574 -0.00037746545    61.297933    61.623765    61.561642    10108.771 
 3080000   -205118.47    1.5909835 -3.4399693e-05     61.46855     61.46837    61.362643    10126.709 
 3085000   -204913.55    1.5918706 0.0029299716    61.669678    61.485773    61.193063    10144.616 
 3090000   -205299.19    1.6157289 0.0018386299    61.517246    61.255901    61.414957    10162.472 
 3095000   -205002.88    1.6172103 0.0032921908    61.294942    61.550942    61.448025    10180.347 
 3100000   -205053.79    1.5873583 0.0043335874     61.50793    61.487583    61.181027    10198.246 
 3105000    -205007.6    1.5931396 0.0046180781    61.217103    61.462017    61.550863    10216.153 
 3110000   -204988.82    1.5957462 -0.0014529679    61.327571    61.632279    61.529227     10234.08 
 3115000   -205026.36    1.5599727 -0.0047026409    61.523616    61.477203    61.655996    10252.039 
 3120000   -204963.32    1.5755354 0.0016848271    61.417491    61.395749    61.501372    10270.016 
[...]
34340000   -201136.99     1.625564  0.002137026    65.275854    64.775802    64.352235    76100.332 
34345000   -201067.52    1.5701184 0.0038018661    64.978911    64.876609    64.278858    76113.424 
34350000   -201159.65    1.6116279 0.0025779413    65.185678    64.596329     64.37839    76126.502 
34355000   -201039.27    1.5885028 0.0030598504    64.902652    64.622773    64.594416    76139.587 
34360000   -201023.16    1.6182242 -0.0010785212    65.198579    64.832352    64.256001     76152.68 
34365000   -200919.59    1.5853496 0.0021530861     64.70159    64.656169    64.919198    76165.764 
34370000   -200966.68    1.5740365 -0.0027521658    64.723041    65.151512    64.802655     76178.82 
34375000   -200881.19    1.6332459 -0.00058257793    64.762115    65.083301    64.996157    76191.902 
34380000    -200959.1     1.619697 -0.0027945225    64.975798    64.763608    64.837956    76205.023 
34385000   -200944.25    1.6338038 -0.0051301336    65.006909     64.86265    64.760806    76218.168 
34390000   -200947.14    1.6029134 -0.0032068586    64.875709    64.820675    65.038733    76231.238 
34395000   -200782.62    1.6154965 -0.0061506462    65.028872    65.054128    64.871122    76244.288 
34400000   -201003.43    1.5691232 0.00084776661    64.897401    64.938968    64.484212    76257.411 
34405000   -200984.94    1.6172304 -0.0059320895    65.118521    64.748125    64.868693    76270.438 
34410000    -201021.4    1.6006785  -0.00298388    64.687025    64.774058    65.013443     76283.52 
34415000    -201017.4    1.5957992 -0.002584641    64.704729    64.844442    64.728515    76296.612 
34420000   -201033.39    1.6218813 -0.0020266615    64.753418    64.777169    64.709412    76309.727 
34425000    -200993.8    1.5903972 0.00017801823    64.535677    65.190874     64.59477    76322.789 
34430000   -201083.87    1.5945307 -0.00044139991    64.875084    64.895042    64.477294    76335.918 
34435000   -200803.24    1.5823411 0.0019445822    64.558113    65.165999    64.532177    76349.015 
34440000   -200879.31    1.6297561 -0.00029015039    64.677309    64.999317    64.812119    76362.093 
34445000   -200941.79    1.5985945 -0.0019745176    64.469969    64.928564    65.168416     76375.16 
34450000   -201019.53    1.6066064 -0.0019666288    64.818709    65.016572     64.86947     76388.22 
34455000   -200865.42    1.6021144 -0.0030255827    65.082636     64.73827    64.944802    76401.251 
34460000   -200952.94    1.6169984 -0.0033683923    64.605229    64.635567    65.279044    76414.321 
34465000   -201046.11    1.5672971 -0.0021252607    64.582201     64.80776    65.103828    76427.405 
34470000    -201029.6    1.6204078 0.0011073037    65.016241    64.600796    65.018365    76440.477 
34475000   -201073.66    1.6262661 -0.0031983186    65.185582     64.89646    64.748187    76453.502 
34480000   -201013.32    1.6025901 -0.0045527572    65.152256    64.816678    64.843087    76466.602 
34485000   -201052.29    1.5607092 0.0022398228    65.113505    64.542266    64.760054    76479.736 
34490000   -200952.17    1.6431836 0.0010549074    65.016793    64.692768    64.975002    76492.856 
34495000   -201044.57    1.5415038 0.0033081604    65.114662    64.632509    64.630444    76505.966 
34500000   -201033.32    1.6030417 -0.0020650885    65.141528    64.611739    64.765209    76519.063 
34505000   -201020.91    1.6067448 -0.0016627325    65.062515     64.77472    64.728551    76532.144 
34510000   -200900.87    1.6060928 -0.0010182469    65.114897    64.820078    64.732565    76545.254 
34515000   -200994.64    1.5966251 0.00047394532     65.51299    64.515589    64.479849    76558.323 
34520000   -201142.77    1.6067161 0.0037052798    65.293628     64.63917    64.628444    76571.368 
34525000   -201043.54    1.6025447 0.0023439729    64.969772    64.430915    65.176095    76584.464 
34530000   -201060.73    1.5943215 0.0028076366    65.033078    64.659325    64.815489    76597.565 
34535000   -200803.45    1.5940504 -0.001149688    65.018434    64.705887    65.062088    76610.631 
34540000   -200702.73    1.5439754 0.00021279685     65.13871    64.796219    64.944416    76623.688 
34545000   -201000.22    1.6418205 0.0031813576    65.092906    64.766455    64.797052    76636.742 
34550000    -200887.7    1.6086853 0.0060417586    65.125427    64.810234    64.700757    76649.797 
34555000   -201056.02    1.5642867 -0.0030899648    65.056322    65.283028    64.720874    76662.847 
34560000   -200941.14    1.6338799 -0.00016967862    64.884493    65.112902      64.9713    76675.869 
34565000   -201038.97    1.6287738 1.2498529e-05    65.078341    64.982247    64.652092    76688.949 
34570000   -200988.19    1.6012076 -8.9954515e-05    65.017461    64.857409     64.74362    76702.024 
34575000   -200844.48    1.6234817 -0.0051250744    65.551475    64.583819    65.012865    76715.122 
34580000   -200819.87    1.5568699 -0.0025010719     65.08323    65.069501    65.132974    76728.137 
34585000   -200902.94     1.596565 -0.0008227119    65.405976    64.568909    64.946139    76741.155 
34590000   -200807.08    1.5963611 -0.0022550387    65.267982    64.614367    65.001955    76754.249 
34595000   -200915.71    1.6301327 -0.0015404839    65.122946    64.511166    65.110583    76767.324 
34600000   -200917.42    1.6447453 -0.00091563306    65.074716    64.601964    65.222607    76780.379 
34605000   -200762.68    1.6006694 -0.0042555854    64.913674     64.88824    65.587737    76793.443 
34610000   -200878.15     1.642524 -0.0016448772    65.024666    65.102216    65.036579     76806.48 
34615000   -201001.75    1.6091463 0.0034886955    65.035842    64.830308    65.070694    76819.536 
34620000   -200842.77    1.6259391 0.0059554989     64.95606    65.065812     64.99264    76832.601 
34625000    -201018.4    1.6070326 8.0230909e-05    65.124455    65.043992    64.782345    76845.667 
34630000   -200895.69    1.5882942 0.00035406452    65.403401    65.049739    64.815178    76858.715 
34635000   -200888.79    1.6013658 0.0029693485    65.699601    65.128106    64.395922    76871.719 
34640000   -200798.79    1.5545671  0.003290497    65.130875    65.085425    64.876666      76884.7 
34645000   -200785.81    1.5958113 0.0020751864    65.300139     65.24618    64.487883    76897.775 
34650000   -200832.53    1.6359942 0.0016339227    65.462895    64.887964    64.640991    76910.795 
34655000   -200767.83    1.6066991 0.00090179825    65.324394    64.935198    64.780245     76923.83 
34660000   -200789.29    1.5823442 0.0032015672    65.095078    64.936643    64.898837    76936.949 
34665000   -201038.02    1.5972531 0.0018627887    65.298249    64.750458    64.611874     76950.08 
34670000   -200884.46    1.6004447 -0.00044691323    65.210691    65.146061     64.73268     76963.14 
34675000   -200878.71    1.6553189 -0.0018898091    65.175036    65.051808     64.83649    76976.236 
34680000   -200769.13    1.6388147 -0.00080276734     64.97318    65.394794     64.90275    76989.322 
34685000   -200726.73    1.5896191 0.00035817062    64.902837    65.445464    65.007702    77002.467 
34690000   -200626.93    1.5806056 0.0068255374    64.618739    65.141117    65.064372    77015.489 
34695000   -200719.22    1.5802849 0.0042306297    64.940663    65.195299    64.875526     77028.57 
34700000   -200766.08    1.5250814 0.0038055703    65.009422    65.146836    64.930195    77041.562 
34705000   -200648.57    1.6036616 -0.0014872585    65.219705     65.15132    65.024066     77054.58 
34710000   -200806.65    1.6501874 -3.581719e-05    64.995601    65.258038    64.952623    77067.646 
34715000   -200789.84    1.6083486 0.00040358509    64.989031    65.192604    64.937229      77080.7 
34720000   -200640.21    1.6396158 -0.002845726    64.767856    65.297344    65.059885    77093.745 
34725000   -200582.68    1.5711332 -0.00090370755    64.987847    64.888857    64.995065     77106.77 
34730000   -200770.14    1.5638819 -0.0039963284     64.97564    64.975513    64.908733    77119.856 
34735000   -200851.74    1.5874804 0.0056163373    64.953524    64.806077    64.769754    77133.003 
34740000   -201053.21     1.620932 0.0027949493    65.012532    64.950496    64.414426    77146.046 
34745000   -200959.93    1.5951457 -0.0046595111    65.319449    64.694835    64.878403    77159.044 
34750000    -200805.7    1.5771947 -0.0055099711    65.294725     64.86215    64.800804    77172.173 
34755000   -200873.83    1.5660493 -0.001186087     64.96604    65.001548    64.482837    77185.288 
34760000   -200916.39    1.5596907 0.0010420513    64.971231    64.737418    64.456883    77198.391 
34765000   -200892.75    1.5584183 -0.0032419421    64.908178    65.050187    64.713467    77211.489 
34770000   -201052.71    1.6292059 0.0074072023    64.870185    64.807472    64.431475    77224.533 
34775000   -200943.31    1.5892084 -0.00010295964    65.220532    64.612506    64.533559     77237.62 
34780000   -200933.84    1.5955786 -0.00087459422    65.161879    64.539754    64.749709    77250.696 
34785000    -200873.6     1.571562 0.0034437787    64.742625    64.945927    64.666218    77263.754 
34790000   -200942.12    1.5618763 0.0031326918     64.89954      65.0432    64.463348    77276.818 
34795000   -200863.53     1.601264 -0.00066871279    64.934389    64.993486    64.820047    77289.922 
34800000   -200772.04     1.636847 0.0012883259    64.974779    64.999507    64.767076    77302.994 
34805000   -200636.17    1.5623693 0.00025593341    65.065304    64.947536    64.932261    77316.045 
34810000    -200759.8      1.57418 -0.0028451441    65.324086    65.029917    64.742843    77329.048 
34815000   -200836.07    1.6120177 0.0038250073    64.946171    64.733325    64.879074    77342.195 
34820000   -200743.49    1.5923175 0.0014801827    65.095094    64.590222    65.106605    77355.322 
34825000   -200762.73    1.5818956 -0.0049961141    65.315065     64.73971    64.937814    77368.395 
34830000   -200796.12    1.5901528 -0.0039763514     65.41091    64.789301    64.940291    77381.505 
34835000   -200772.99    1.6215145 -0.0035280112    65.545522    64.692238    64.893615    77394.616 
34840000    -200722.8    1.5646734 -0.0028466175    65.354076    64.912325    65.076976    77407.703 
34845000   -200753.09    1.5812141 -0.0025606305    65.570438    64.872604    64.984445    77420.777 
34850000   -200980.76    1.5933651 0.0024485879    65.320282    64.609133    64.943534    77433.828 
34855000   -200976.67    1.6119428 0.0044029346    65.119496    65.045281    64.803867    77446.882 
34860000   -200864.98    1.6287019 -0.0011761863    65.252151    65.376118    64.813622    77459.892 
34865000   -200818.87    1.6108489 -0.00055311821     65.47333     65.18812    64.657475    77472.908 
34870000   -200707.26    1.5994613 -0.0044667591    65.647789    65.107643    64.826934    77485.948 
34875000   -200716.25    1.6307716 -0.0060530115    65.536349    64.937221    65.231427    77499.019 
34880000   -200732.46    1.6139256 0.0018673981    65.564468    64.677529     64.87385     77512.01 
34885000   -200746.85    1.5932252 0.0025619749    65.199379    64.865999    65.160189    77525.041 
34890000   -200880.97    1.6118406 -0.00066504285    65.027038    65.063187     65.11627    77538.124 
34895000   -200939.09    1.6064222 -0.0029528329    64.962316    65.107371    65.062607    77551.218 
34900000   -201131.61    1.6029187 -0.0028316168    64.852255    65.296202    64.980387    77564.269 
34905000   -201046.84    1.5669729 -0.0052183016    65.362277    65.174637    64.719235    77577.375 
34910000   -200785.76    1.6072389 -0.0049146174    65.400165    64.824752    64.976032    77590.472 
34915000   -200714.85    1.6189733 -0.0040776111    65.386226    64.974491    64.980727    77603.513 
34920000   -200754.61    1.5723315 -0.0047548154    65.281707     64.92783    65.235358     77616.57 
34925000   -200885.25    1.6421225 0.0014238194    64.846532    65.123497    64.937774    77629.598 
34930000   -201010.49    1.5808519 -0.0010940926    65.282736    64.844476    64.956195    77642.664 
34935000   -200826.21    1.6315421 -0.0020308984    65.313198    65.020549    64.934045    77655.724 
34940000    -200733.4    1.5868286 -0.00040476614    65.185349    64.704959    65.043541    77668.805 
34945000   -200867.31    1.6114131 -0.00014533588    65.097629    64.691765    65.033431    77681.802 
34950000   -200902.86     1.577932 -0.0020017692     65.06491    64.707338    64.954297    77694.896 
34955000   -200916.91    1.5658726 0.0014144468    65.326411    64.488489     64.83337    77707.931 
34960000   -200981.43     1.601619 0.00057646296    64.855883    64.677348    64.863261    77721.037 
34965000   -200990.96    1.6274591 -0.00020466668    64.882908    64.455363    65.067605     77734.15 
34970000   -200771.55     1.611633 -0.0068621368    64.943483    64.885617    65.102361    77747.267 
34975000   -200775.67    1.6043475 -0.00028264698    64.445366    64.847487    65.288539    77760.311 
34980000   -200808.66    1.6063994 0.0043006607    64.626691    64.594467    65.257825    77773.321 
34985000   -200658.61    1.5887675 -0.0022376889    65.114708     64.77363    64.899518     77786.35 
34990000   -200825.69    1.5222741 -0.0047978088    65.156092      64.7143    64.800014      77799.4 
34995000   -200632.55    1.6167635 -0.0027782909    64.756331    64.920525    65.133094    77812.541 
35000000    -200631.1    1.6168031 -0.0035627624     64.84103    64.643049    65.200408    77825.617 
35005000   -200654.48    1.6385601 0.0021922787    64.997445    64.652059    64.965832    77838.688 
35010000   -200663.31    1.5669684 0.0038466465    64.534719    64.694702    65.146637    77851.783 
35015000   -200772.19     1.581656 0.0035448555    64.758218    64.774808    65.037598    77864.902 
35020000   -200853.24    1.5910693 0.0007293576    64.801995    64.861324    64.824748    77878.021 
35025000   -200949.85    1.6127065 0.00091788308    65.083464    64.647713    64.633133    77891.066 
35030000    -200820.2    1.6296657 0.0010424127    64.819612    64.667246    64.973077    77904.133 
35035000   -200865.71    1.6431567 7.0758068e-05     64.47852    64.785419    65.185815    77917.206 
35040000   -200915.06    1.5979684 0.0020229211    64.745859    64.756761     65.10797    77930.216 
35045000   -201006.14    1.6289323 -0.0025935448    64.876815    64.857769    65.102202    77943.265 
35050000   -200940.79    1.5912547 0.0008943029    64.587735    64.706517    65.371875    77956.334 
35055000   -200835.62     1.611901 -0.0011795073    64.725668    65.058893    65.232343    77969.365 
35060000   -200687.35    1.6043352 0.0015409049    65.100364    65.009218    65.034912    77982.399 
35065000   -200975.15    1.6124209 0.0008930215    64.862067    64.892736    65.191294    77995.444 
35070000   -200795.49    1.5904015 0.00039679192    65.045634    64.957655    65.004724    78008.524 
35075000    -200955.3    1.6392886 0.00011300603    64.862157    65.105181    64.987755    78021.639 
35080000   -200800.78     1.598876 0.0007370363    64.771693    65.111986    65.391639    78034.713 
35085000   -200972.15    1.6037239 -0.0016057705    64.996322    65.031346    65.368138    78047.772 
35090000   -200956.41    1.5951858 -0.00080814295    64.901973    65.057875    65.262203    78060.769 
35095000   -200971.99    1.6545354 0.0026975075     64.70522    65.027926     65.18859    78073.796 
35100000   -200777.92    1.5921839 -0.0028034239    64.808336    65.210404    65.337543    78086.864 
35105000   -200857.45    1.5935086 -0.00071546586     64.90325    65.179379    65.015904     78099.93 
35110000   -200817.29     1.611391 0.0021476707     64.86425    64.938305    65.170888    78112.958 
35115000    -200794.1    1.5957195 0.0012054099    65.234818    65.007547    64.920028    78126.032 
35120000   -200876.21    1.6448232 0.0034999368    64.942856    65.208633     64.89967    78139.086 
35125000    -200967.8    1.6153711 0.0024436961    64.944272    64.806436    65.280528    78152.181 
35130000    -200927.5    1.5674673 0.0010435371    64.815386    64.877474     65.42833    78165.233 
35135000   -200795.96    1.5711756 0.0014164955    65.025944    64.943939    65.359938    78178.285 
35140000   -200858.44    1.6059786 -4.1276923e-05    65.347185    64.939218    65.129109    78191.322 
35145000   -200916.87    1.6405347 0.00053473785    65.469649    64.554095    65.200012    78204.345 
35150000   -200965.27    1.6273001 0.0016708751    65.169964    64.660341    65.180098    78217.395 
35155000   -201060.22    1.6128914 0.00064910807    65.263866    64.560566    65.213551    78230.415 
35160000      -201065    1.5517714 -0.00020468755    65.458913    64.700497    64.937795    78243.476 
35165000    -200878.4    1.6402274 0.0016530354     65.15489    64.973294      65.0746     78256.55 
35170000   -200783.33    1.5647132 -0.00078883578    65.083945    64.703054    65.526512    78269.578 
35175000   -200973.49    1.5766475 -0.0023796817    65.251185    65.005974     64.83933    78282.626 
35180000   -200995.36    1.6184508 -0.0034028763    65.389714    64.864053    65.029781    78295.722 
35185000   -201009.73    1.6290948 -0.0013427229    65.216878    65.124169    65.087965    78308.741 
35190000      -201170    1.6075924 -0.0031136009    65.077062    65.074825     64.92051     78321.83 
35195000   -200904.44    1.6114788 -0.0057494369     65.08458    65.211361    65.174695    78334.881 
35200000   -201235.89    1.5988127 0.00059397761    65.015145    64.883331    64.981501    78347.937 
35205000   -201092.27    1.6371556 -0.0017335149    65.010831     64.82716    65.109075    78360.934 
35210000   -200995.29    1.6411033 0.0014237909    64.991443    64.698206    65.348786    78373.974 
35215000   -200882.43    1.5875884 -0.0007571431    65.157026    64.896015    65.079673    78387.062 
35220000   -200944.41    1.5512275 -0.0018611501    64.917988     64.91678    65.114775    78400.128 
35225000    -200896.2    1.5700271 0.0010410166    64.862351    64.942255    65.236869     78413.18 
35230000   -201061.34    1.6385213 0.0004140097    65.032885    64.878986    64.984388    78426.188 
35235000   -201129.49     1.625096 0.00081079623    64.856186    64.881373    64.834067    78439.246 
35240000   -200933.56    1.5933125 0.0020226349    65.059333    65.033732    64.746766    78452.351 
35245000   -200878.15    1.6094906 -0.0010803062    65.003516    65.298873    64.641792    78465.372 
35250000   -200957.48    1.6348303 0.0019717555     64.95397    64.739988    64.880316    78478.443 
Loop time of 78478.4 on 8 procs for 30000000 steps with 2304 atoms

Performance: 16514.089 tau/day, 382.271 timesteps/s
95.3% CPU use with 8 MPI tasks x 1 OpenMP threads

MPI task timing breakdown:
Section |  min time  |  avg time  |  max time  |%varavg| %total
---------------------------------------------------------------
Pair    | 13108      | 13998      | 14915      | 452.2 | 17.84
Bond    | 2.3723     | 2.766      | 3.0012     |  12.1 |  0.00
Kspace  | 32635      | 32848      | 33104      | 103.6 | 41.86
Neigh   | 2127.8     | 2150.7     | 2220.7     |  70.2 |  2.74
Comm    | 3138       | 3170.8     | 3203.3     |  36.0 |  4.04
Output  | 6.4894     | 8.1005     | 19.364     | 149.6 |  0.01
Modify  | 19430      | 24229      | 26525      |1641.1 | 30.87
Other   |            | 2071       |            |       |  2.64

Nlocal:        288.000 ave         298 max         280 min
Histogram: 1 0 3 0 0 2 0 1 0 1
Nghost:        6200.25 ave        6239 max        6157 min
Histogram: 1 1 1 0 1 1 0 0 1 2
Neighs:         0.00000 ave           0 max           0 min
Histogram: 8 0 0 0 0 0 0 0 0 0
FullNghs:      260650.0 ave      269973 max      252689 min
Histogram: 1 0 1 2 0 2 0 1 0 1

Total # of neighbors = 2085196
Ave neighs/atom = 905.03299
Ave special neighs/atom = 0.0000000
Neighbor list builds = 226555
Dangerous builds = 0

Total wall time: 26:08:15
