Lammps data file for initial configuration

2304 atoms

2 atom types

-80	80 xlo xhi
-80	80 ylo yhi
-80	80 zlo zhi
0 0 0 xy xz yz

Masses

1	25
2	0.2
Atoms

1	1	1	-48	-80	-80	-80
2	2	1	-48	-60	-60	-80
3	3	1	-48	-60	-80	-60
4	4	1	-48	-80	-60	-60
5	5	1	-48	-80	-80	-40
6	6	1	-48	-60	-60	-40
7	7	1	-48	-60	-80	-20
8	8	1	-48	-80	-60	-20
9	9	1	-48	-80	-80	0
10	10	1	-48	-60	-60	0
11	11	1	-48	-60	-80	20
12	12	1	-48	-80	-60	20
13	13	1	-48	-80	-80	40
14	14	1	-48	-60	-60	40
15	15	1	-48	-60	-80	60
16	16	1	-48	-80	-60	60
17	17	1	-48	-80	-40	-80
18	18	1	-48	-60	-20	-80
19	19	1	-48	-60	-40	-60
20	20	1	-48	-80	-20	-60
21	21	1	-48	-80	-40	-40
22	22	1	-48	-60	-20	-40
23	23	1	-48	-60	-40	-20
24	24	1	-48	-80	-20	-20
25	25	1	-48	-80	-40	0
26	26	1	-48	-60	-20	0
27	27	1	-48	-60	-40	20
28	28	1	-48	-80	-20	20
29	29	1	-48	-80	-40	40
30	30	1	-48	-60	-20	40
31	31	1	-48	-60	-40	60
32	32	1	-48	-80	-20	60
33	33	1	-48	-80	0	-80
34	34	1	-48	-60	20	-80
35	35	1	-48	-60	0	-60
36	36	1	-48	-80	20	-60
37	37	1	-48	-80	0	-40
38	38	1	-48	-60	20	-40
39	39	1	-48	-60	0	-20
40	40	1	-48	-80	20	-20
41	41	1	-48	-80	0	0
42	42	1	-48	-60	20	0
43	43	1	-48	-60	0	20
44	44	1	-48	-80	20	20
45	45	1	-48	-80	0	40
46	46	1	-48	-60	20	40
47	47	1	-48	-60	0	60
48	48	1	-48	-80	20	60
49	49	1	-48	-80	40	-80
50	50	1	-48	-60	60	-80
51	51	1	-48	-60	40	-60
52	52	1	-48	-80	60	-60
53	53	1	-48	-80	40	-40
54	54	1	-48	-60	60	-40
55	55	1	-48	-60	40	-20
56	56	1	-48	-80	60	-20
57	57	1	-48	-80	40	0
58	58	1	-48	-60	60	0
59	59	1	-48	-60	40	20
60	60	1	-48	-80	60	20
61	61	1	-48	-80	40	40
62	62	1	-48	-60	60	40
63	63	1	-48	-60	40	60
64	64	1	-48	-80	60	60
65	65	1	-48	-40	-80	-80
66	66	1	-48	-20	-60	-80
67	67	1	-48	-20	-80	-60
68	68	1	-48	-40	-60	-60
69	69	1	-48	-40	-80	-40
70	70	1	-48	-20	-60	-40
71	71	1	-48	-20	-80	-20
72	72	1	-48	-40	-60	-20
73	73	1	-48	-40	-80	0
74	74	1	-48	-20	-60	0
75	75	1	-48	-20	-80	20
76	76	1	-48	-40	-60	20
77	77	1	-48	-40	-80	40
78	78	1	-48	-20	-60	40
79	79	1	-48	-20	-80	60
80	80	1	-48	-40	-60	60
81	81	1	-48	-40	-40	-80
82	82	1	-48	-20	-20	-80
83	83	1	-48	-20	-40	-60
84	84	1	-48	-40	-20	-60
85	85	1	-48	-40	-40	-40
86	86	1	-48	-20	-20	-40
87	87	1	-48	-20	-40	-20
88	88	1	-48	-40	-20	-20
89	89	1	-48	-40	-40	0
90	90	1	-48	-20	-20	0
91	91	1	-48	-20	-40	20
92	92	1	-48	-40	-20	20
93	93	1	-48	-40	-40	40
94	94	1	-48	-20	-20	40
95	95	1	-48	-20	-40	60
96	96	1	-48	-40	-20	60
97	97	1	-48	-40	0	-80
98	98	1	-48	-20	20	-80
99	99	1	-48	-20	0	-60
100	100	1	-48	-40	20	-60
101	101	1	-48	-40	0	-40
102	102	1	-48	-20	20	-40
103	103	1	-48	-20	0	-20
104	104	1	-48	-40	20	-20
105	105	1	-48	-40	0	0
106	106	1	-48	-20	20	0
107	107	1	-48	-20	0	20
108	108	1	-48	-40	20	20
109	109	1	-48	-40	0	40
110	110	1	-48	-20	20	40
111	111	1	-48	-20	0	60
112	112	1	-48	-40	20	60
113	113	1	-48	-40	40	-80
114	114	1	-48	-20	60	-80
115	115	1	-48	-20	40	-60
116	116	1	-48	-40	60	-60
117	117	1	-48	-40	40	-40
118	118	1	-48	-20	60	-40
119	119	1	-48	-20	40	-20
120	120	1	-48	-40	60	-20
121	121	1	-48	-40	40	0
122	122	1	-48	-20	60	0
123	123	1	-48	-20	40	20
124	124	1	-48	-40	60	20
125	125	1	-48	-40	40	40
126	126	1	-48	-20	60	40
127	127	1	-48	-20	40	60
128	128	1	-48	-40	60	60
129	129	1	-48	0	-80	-80
130	130	1	-48	20	-60	-80
131	131	1	-48	20	-80	-60
132	132	1	-48	0	-60	-60
133	133	1	-48	0	-80	-40
134	134	1	-48	20	-60	-40
135	135	1	-48	20	-80	-20
136	136	1	-48	0	-60	-20
137	137	1	-48	0	-80	0
138	138	1	-48	20	-60	0
139	139	1	-48	20	-80	20
140	140	1	-48	0	-60	20
141	141	1	-48	0	-80	40
142	142	1	-48	20	-60	40
143	143	1	-48	20	-80	60
144	144	1	-48	0	-60	60
145	145	1	-48	0	-40	-80
146	146	1	-48	20	-20	-80
147	147	1	-48	20	-40	-60
148	148	1	-48	0	-20	-60
149	149	1	-48	0	-40	-40
150	150	1	-48	20	-20	-40
151	151	1	-48	20	-40	-20
152	152	1	-48	0	-20	-20
153	153	1	-48	0	-40	0
154	154	1	-48	20	-20	0
155	155	1	-48	20	-40	20
156	156	1	-48	0	-20	20
157	157	1	-48	0	-40	40
158	158	1	-48	20	-20	40
159	159	1	-48	20	-40	60
160	160	1	-48	0	-20	60
161	161	1	-48	0	0	-80
162	162	1	-48	20	20	-80
163	163	1	-48	20	0	-60
164	164	1	-48	0	20	-60
165	165	1	-48	0	0	-40
166	166	1	-48	20	20	-40
167	167	1	-48	20	0	-20
168	168	1	-48	0	20	-20
169	169	1	-48	0	0	0
170	170	1	-48	20	20	0
171	171	1	-48	20	0	20
172	172	1	-48	0	20	20
173	173	1	-48	0	0	40
174	174	1	-48	20	20	40
175	175	1	-48	20	0	60
176	176	1	-48	0	20	60
177	177	1	-48	0	40	-80
178	178	1	-48	20	60	-80
179	179	1	-48	20	40	-60
180	180	1	-48	0	60	-60
181	181	1	-48	0	40	-40
182	182	1	-48	20	60	-40
183	183	1	-48	20	40	-20
184	184	1	-48	0	60	-20
185	185	1	-48	0	40	0
186	186	1	-48	20	60	0
187	187	1	-48	20	40	20
188	188	1	-48	0	60	20
189	189	1	-48	0	40	40
190	190	1	-48	20	60	40
191	191	1	-48	20	40	60
192	192	1	-48	0	60	60
193	193	1	-48	40	-80	-80
194	194	1	-48	60	-60	-80
195	195	1	-48	60	-80	-60
196	196	1	-48	40	-60	-60
197	197	1	-48	40	-80	-40
198	198	1	-48	60	-60	-40
199	199	1	-48	60	-80	-20
200	200	1	-48	40	-60	-20
201	201	1	-48	40	-80	0
202	202	1	-48	60	-60	0
203	203	1	-48	60	-80	20
204	204	1	-48	40	-60	20
205	205	1	-48	40	-80	40
206	206	1	-48	60	-60	40
207	207	1	-48	60	-80	60
208	208	1	-48	40	-60	60
209	209	1	-48	40	-40	-80
210	210	1	-48	60	-20	-80
211	211	1	-48	60	-40	-60
212	212	1	-48	40	-20	-60
213	213	1	-48	40	-40	-40
214	214	1	-48	60	-20	-40
215	215	1	-48	60	-40	-20
216	216	1	-48	40	-20	-20
217	217	1	-48	40	-40	0
218	218	1	-48	60	-20	0
219	219	1	-48	60	-40	20
220	220	1	-48	40	-20	20
221	221	1	-48	40	-40	40
222	222	1	-48	60	-20	40
223	223	1	-48	60	-40	60
224	224	1	-48	40	-20	60
225	225	1	-48	40	0	-80
226	226	1	-48	60	20	-80
227	227	1	-48	60	0	-60
228	228	1	-48	40	20	-60
229	229	1	-48	40	0	-40
230	230	1	-48	60	20	-40
231	231	1	-48	60	0	-20
232	232	1	-48	40	20	-20
233	233	1	-48	40	0	0
234	234	1	-48	60	20	0
235	235	1	-48	60	0	20
236	236	1	-48	40	20	20
237	237	1	-48	40	0	40
238	238	1	-48	60	20	40
239	239	1	-48	60	0	60
240	240	1	-48	40	20	60
241	241	1	-48	40	40	-80
242	242	1	-48	60	60	-80
243	243	1	-48	60	40	-60
244	244	1	-48	40	60	-60
245	245	1	-48	40	40	-40
246	246	1	-48	60	60	-40
247	247	1	-48	60	40	-20
248	248	1	-48	40	60	-20
249	249	1	-48	40	40	0
250	250	1	-48	60	60	0
251	251	1	-48	60	40	20
252	252	1	-48	40	60	20
253	253	1	-48	40	40	40
254	254	1	-48	60	60	40
255	255	1	-48	60	40	60
256	256	1	-48	40	60	60
257	257	2	6	51.0693	-18.4763	62.217
258	258	2	6	-49.182	-27.7053	6.41931
259	259	2	6	-5.52606	18.1039	-23.0936
260	260	2	6	68.5478	62.9264	19.171
261	261	2	6	31.8983	-57.91	14.6871
262	262	2	6	-58.5919	45.4516	-55.5581
263	263	2	6	-17.4527	-59.7527	-63.0258
264	264	2	6	-45.9519	50.9015	15.5718
265	265	2	6	-33.8191	19.4582	71.7529
266	266	2	6	-34.3674	-17.5643	59.0786
267	267	2	6	-25.0165	46.005	63.3681
268	268	2	6	-69.1182	68.095	-66.5753
269	269	2	6	-50.0146	23.4634	58.8763
270	270	2	6	-25.5727	-69.9893	-8.59853
271	271	2	6	-70.157	71.4189	60.7445
272	272	2	6	52.7435	-21.4677	24.1649
273	273	2	6	-73.8723	-11.7285	65.3663
274	274	2	6	65.2063	32.4686	19.8367
275	275	2	6	-24.7684	27.3064	-54.108
276	276	2	6	-11.3437	57.2917	49.3554
277	277	2	6	-28.4674	59.3661	-25.3438
278	278	2	6	27.1205	69.209	11.8279
279	279	2	6	22.5394	53.9535	-11.4287
280	280	2	6	64.1393	-17.8439	47.1036
281	281	2	6	26.7381	62.1116	-46.3313
282	282	2	6	68.2394	63.54	-56.965
283	283	2	6	57.4457	20.0086	-12.6153
284	284	2	6	16.6571	-32.0366	-10.2628
285	285	2	6	-50.7448	6.80523	-15.0258
286	286	2	6	-53.5413	61.4614	-63.9053
287	287	2	6	-60.3322	73.6213	65.8606
288	288	2	6	26.7734	-20.2226	-22.4885
289	289	2	6	-34.111	11.1802	-56.2272
290	290	2	6	34.2152	-60.4259	-54.4001
291	291	2	6	-68.3734	68.2162	-71.8054
292	292	2	6	-52.5111	34.2941	22.4239
293	293	2	6	70.9152	19.7555	-65.417
294	294	2	6	-58.9552	-67.7958	-69.0946
295	295	2	6	-48.0738	-8.01841	47.8697
296	296	2	6	9.43771	-71.8975	-55.3821
297	297	2	6	-48.1247	58.8331	-60.4269
298	298	2	6	-71.567	55.8042	-68.7167
299	299	2	6	63.9988	12.6472	-51.8619
300	300	2	6	-54.5515	-18.8963	62.4322
301	301	2	6	47.8724	-23.9811	6.18766
302	302	2	6	10.3911	-9.39817	27.2324
303	303	2	6	-64.4562	-32.53	74.7876
304	304	2	6	10.0075	56.9077	18.1099
305	305	2	6	-74.4743	49.9852	64.3587
306	306	2	6	56.2303	49.6419	72.7917
307	307	2	6	60.9251	73.4409	24.0333
308	308	2	6	-54.421	49.4818	58.676
309	309	2	6	-67.9888	21.3543	18.1988
310	310	2	6	29.2967	-30.5687	-28.7108
311	311	2	6	-68.4309	18.7593	-45.1096
312	312	2	6	21.5766	71.5487	5.19267
313	313	2	6	32.2059	-62.3282	-6.44859
314	314	2	6	12.4362	67.3136	-9.65686
315	315	2	6	-27.5292	52.2388	-12.2159
316	316	2	6	-26.1889	13.3631	49.986
317	317	2	6	25.3743	-32.4269	31.0856
318	318	2	6	-51.5213	17.0044	-73.6252
319	319	2	6	-15.4185	28.5735	25.1341
320	320	2	6	19.4719	-25.8499	-51.1989
321	321	2	6	15.0205	17.8366	33.9938
322	322	2	6	-28.7736	-48.4548	63.6626
323	323	2	6	26.822	21.8883	-66.3276
324	324	2	6	56.8719	27.0355	-65.3765
325	325	2	6	-62.641	-23.5903	9.96372
326	326	2	6	12.541	23.9828	-34.9507
327	327	2	6	-28.5758	-50.3988	73.5607
328	328	2	6	49.073	-28.2893	-50.6406
329	329	2	6	-11.9065	69.5474	63.3531
330	330	2	6	29.0558	-61.1017	26.9826
331	331	2	6	-20.1222	67.116	62.9386
332	332	2	6	54.4591	-48.2465	5.49456
333	333	2	6	-33.623	61.1695	61.9043
334	334	2	6	56.3407	9.88713	-54.6099
335	335	2	6	54.8743	-7.6687	52.435
336	336	2	6	-34.5957	-51.8543	26.7318
337	337	2	6	33.4978	-58.3069	14.085
338	338	2	6	50.7488	32.9833	-52.1996
339	339	2	6	-45.3734	-61.0836	-58.4348
340	340	2	6	-23.771	-29.3301	65.3757
341	341	2	6	61.7236	17.0469	50.5451
342	342	2	6	47.6279	-27.7444	-18.485
343	343	2	6	22.7777	14.9857	-56.4081
344	344	2	6	-68.683	-63.1757	20.9644
345	345	2	6	-23.2787	-28.3038	-65.7808
346	346	2	6	-13.3369	65.7812	11.037
347	347	2	6	22.7645	-55.4655	57.7537
348	348	2	6	17.6038	-47.5764	6.97946
349	349	2	6	-13.5129	49.4705	-18.4754
350	350	2	6	-29.1419	33.7802	19.63
351	351	2	6	73.6358	-27.2341	60.0194
352	352	2	6	-58.7724	-15.9171	-34.1862
353	353	2	6	-62.1118	55.0234	32.4769
354	354	2	6	-72.3307	-9.9396	73.8889
355	355	2	6	30.4338	-47.1023	-6.07254
356	356	2	6	54.9683	-65.3486	-64.4687
357	357	2	6	-20.2682	-32.925	22.5107
358	358	2	6	46.2189	-59.4545	-71.9647
359	359	2	6	-71.6661	-8.59637	27.9639
360	360	2	6	-10.9606	-61.4186	11.9833
361	361	2	6	10.267	12.8271	-23.541
362	362	2	6	-32.5315	58.6408	-5.65279
363	363	2	6	-53.508	15.1177	16.5524
364	364	2	6	13.0066	49.4501	-69.0659
365	365	2	6	-64.5814	64.1015	-53.5347
366	366	2	6	48.976	-34.6307	-24.2779
367	367	2	6	57.0113	-26.2969	47.1258
368	368	2	6	22.8268	-74.3329	17.6504
369	369	2	6	50.4322	-31.9276	-45.5225
370	370	2	6	-49.1088	15.541	-62.8817
371	371	2	6	25.2384	32.236	-48.745
372	372	2	6	-17.4147	-30.7573	-12.2947
373	373	2	6	-19.8233	-55.8631	6.64205
374	374	2	6	-20.6865	-20.3819	-32.3564
375	375	2	6	21.3468	6.16136	63.4562
376	376	2	6	27.0139	46.3265	28.8643
377	377	2	6	-31.3357	20.7587	51.6499
378	378	2	6	16.4777	20.26	-17.4894
379	379	2	6	-23.5039	32.1433	45.0959
380	380	2	6	25.7387	-56.1514	-74.8687
381	381	2	6	-70.0845	26.9726	-50.7318
382	382	2	6	16.5575	29.247	8.58165
383	383	2	6	-32.3827	22.2374	53.7786
384	384	2	6	-51.7389	-26.7487	24.1051
385	385	2	6	57.1255	21.9156	-31.1362
386	386	2	6	58.0622	-50.9427	-55.4863
387	387	2	6	49.3173	25.402	61.0505
388	388	2	6	-50.1866	-18.4547	30.1464
389	389	2	6	55.5521	5.39395	65.4676
390	390	2	6	64.5458	6.0251	65.6135
391	391	2	6	6.20067	66.5041	47.0056
392	392	2	6	12.7416	22.5233	65.9929
393	393	2	6	-29.3715	56.3923	11.9084
394	394	2	6	19.4923	14.2831	-6.59198
395	395	2	6	-53.9551	54.9533	56.1913
396	396	2	6	23.6486	-15.6527	15.469
397	397	2	6	13.1162	20.7138	-56.8587
398	398	2	6	10.3274	-74.8577	29.342
399	399	2	6	49.887	-62.4269	-72.434
400	400	2	6	47.0388	-19.9933	19.4744
401	401	2	6	-9.46891	-57.5388	-15.5599
402	402	2	6	-16.5444	31.9451	9.5005
403	403	2	6	46.8197	10.8984	-10.3082
404	404	2	6	-5.53162	-70.8392	-68.4154
405	405	2	6	19.9595	13.1756	-45.274
406	406	2	6	-45.7131	18.3179	64.068
407	407	2	6	-7.79505	-11.5844	52.6915
408	408	2	6	68.6153	68.0301	60.2574
409	409	2	6	-27.9632	-45.8148	-5.50201
410	410	2	6	68.172	-7.2777	57.9536
411	411	2	6	70.8952	-51.3326	-8.54592
412	412	2	6	61.1459	70.3067	-28.2321
413	413	2	6	-17.2289	7.48238	6.49391
414	414	2	6	17.058	-50.1997	-5.4381
415	415	2	6	-23.8236	22.0053	62.9775
416	416	2	6	-47.1321	14.6206	55.0076
417	417	2	6	-62.8747	-21.7253	-48.9556
418	418	2	6	20.8571	12.4599	25.5424
419	419	2	6	13.0291	-70.8178	7.496
420	420	2	6	7.92432	-26.3607	64.096
421	421	2	6	13.8226	58.4027	65.5905
422	422	2	6	-53.0019	-10.1149	19.6854
423	423	2	6	70.6463	-55.7675	-34.3093
424	424	2	6	57.6239	-22.8996	60.3113
425	425	2	6	-5.77432	67.6759	-60.9172
426	426	2	6	55.0459	17.2183	32.1119
427	427	2	6	64.2282	-51.2857	-53.9222
428	428	2	6	-48.3356	17.6755	-52.5067
429	429	2	6	-60.2396	67.7202	-54.9114
430	430	2	6	-61.2817	-7.95175	21.173
431	431	2	6	62.7744	-64.2663	15.8194
432	432	2	6	-68.9931	-18.5756	-11.8928
433	433	2	6	-34.2643	62.3329	8.32166
434	434	2	6	-50.2494	-74.5842	-12.6324
435	435	2	6	46.969	-24.4042	-74.436
436	436	2	6	-48.6523	23.2395	29.1668
437	437	2	6	-28.8919	58.7376	20.887
438	438	2	6	-26.7287	-72.1738	45.3195
439	439	2	6	28.9992	26.3798	61.0532
440	440	2	6	-31.1814	-33.5224	46.2618
441	441	2	6	-50.5061	12.2133	-71.6635
442	442	2	6	-64.1732	-55.4651	-58.7574
443	443	2	6	11.9025	-70.9438	58.7703
444	444	2	6	67.4983	-71.2605	64.3343
445	445	2	6	-6.8282	11.5737	-53.6614
446	446	2	6	11.1953	-5.68867	47.2256
447	447	2	6	64.4665	10.831	33.786
448	448	2	6	18.8392	65.3168	-25.7828
449	449	2	6	-47.9086	-17.4463	-32.0817
450	450	2	6	26.065	20.6409	-10.8391
451	451	2	6	29.6971	-28.0688	-46.5343
452	452	2	6	26.6375	51.8392	52.9761
453	453	2	6	13.719	-29.8495	24.2018
454	454	2	6	52.288	-68.5752	58.8108
455	455	2	6	15.3801	48.1276	69.5973
456	456	2	6	34.9325	-26.3423	-23.849
457	457	2	6	-73.1492	-34.3099	30.4889
458	458	2	6	47.9428	-7.07454	-67.7918
459	459	2	6	-50.2066	64.0474	-73.2304
460	460	2	6	-66.8319	30.9714	15.3536
461	461	2	6	-65.5141	70.0042	55.3252
462	462	2	6	-54.0893	-5.75221	10.2636
463	463	2	6	34.8881	63.9212	-64.961
464	464	2	6	67.6439	-64.1691	46.3199
465	465	2	6	-65.1733	-52.9651	66.2834
466	466	2	6	-64.9177	73.0529	51.8626
467	467	2	6	-26.7198	28.0243	-8.78379
468	468	2	6	-12.2339	22.0285	-29.4586
469	469	2	6	13.6768	-59.7237	-67.3227
470	470	2	6	-21.0324	-58.6348	22.9409
471	471	2	6	-62.1444	57.3866	10.8621
472	472	2	6	-47.1053	24.2588	-31.2744
473	473	2	6	67.1426	-60.9545	-74.0307
474	474	2	6	-17.7092	-46.9958	-9.38663
475	475	2	6	-55.0147	-31.9135	-12.3337
476	476	2	6	21.3667	-60.3094	-7.93595
477	477	2	6	-66.8672	26.8096	61.9953
478	478	2	6	55.2828	-70.2229	-72.6395
479	479	2	6	-52.3673	64.7471	-62.9142
480	480	2	6	-19.4726	13.0058	19.5919
481	481	2	6	29.253	-16.5681	48.2984
482	482	2	6	10.1178	63.762	-45.4108
483	483	2	6	-21.6247	-20.4255	-64.7915
484	484	2	6	46.0416	-19.5777	65.7323
485	485	2	6	52.4864	49.708	31.4513
486	486	2	6	19.0918	17.4467	10.2948
487	487	2	6	24.8072	13.5542	-58.3159
488	488	2	6	-57.5451	-49.4399	51.7079
489	489	2	6	34.7086	-51.2921	24.0063
490	490	2	6	-31.1736	-63.5301	58.5955
491	491	2	6	-64.0516	-5.15477	-48.8431
492	492	2	6	22.5923	67.7322	-45.3809
493	493	2	6	66.0705	-57.8295	-34.0422
494	494	2	6	7.51715	20.5451	56.2526
495	495	2	6	25.1434	18.1801	49.8785
496	496	2	6	46.8275	12.1035	16.3428
497	497	2	6	-68.0265	57.2814	-53.0553
498	498	2	6	-52.0781	-23.8734	-10.8853
499	499	2	6	-20.9212	21.0135	-64.293
500	500	2	6	-29.189	55.6326	14.7857
501	501	2	6	-63.7488	45.7031	-17.791
502	502	2	6	-22.7798	-18.4988	13.5445
503	503	2	6	-69.3554	60.6416	-12.5769
504	504	2	6	57.4721	25.2765	-8.13834
505	505	2	6	-6.42435	-34.3806	9.96848
506	506	2	6	-33.0177	-60.3315	-5.09574
507	507	2	6	-49.9722	53.9831	-59.1915
508	508	2	6	-34.2652	-51.2059	60.5204
509	509	2	6	-34.9547	46.1442	21.4766
510	510	2	6	27.2542	-52.6356	-73.0222
511	511	2	6	69.7158	-62.3776	54.3573
512	512	2	6	-47.668	24.1937	-7.32978
513	513	2	6	49.2532	59.2025	31.0573
514	514	2	6	-16.7783	-49.8151	50.7258
515	515	2	6	-55.8652	25.0891	-29.4791
516	516	2	6	-25.8374	-8.67061	19.8974
517	517	2	6	31.8663	-8.22948	-50.1057
518	518	2	6	28.1658	-10.7208	21.8815
519	519	2	6	-45.8118	-25.5054	-13.4798
520	520	2	6	-26.4109	-72.1273	-65.2861
521	521	2	6	46.2594	57.126	73.9164
522	522	2	6	-51.8987	-23.9575	-11.5175
523	523	2	6	53.1904	26.5633	-19.7374
524	524	2	6	-58.1073	-13.4575	-63.8711
525	525	2	6	13.6632	70.9603	-62.9596
526	526	2	6	55.578	-55.1454	45.2062
527	527	2	6	-31.1428	-18.2733	-8.9123
528	528	2	6	71.3266	69.5655	-66.1896
529	529	2	6	-71.7206	60.0698	60.3253
530	530	2	6	-73.8041	-14.6136	-51.3271
531	531	2	6	-45.7029	17.1554	-68.5125
532	532	2	6	-8.00773	-16.1994	-8.2499
533	533	2	6	13.885	50.3431	7.87897
534	534	2	6	-48.4518	45.3034	24.9194
535	535	2	6	-68.8738	70.158	-5.87444
536	536	2	6	-20.0166	-24.1153	65.2133
537	537	2	6	63.0287	-63.894	60.5398
538	538	2	6	56.5943	-50.0836	63.7391
539	539	2	6	64.8737	-66.0138	48.0644
540	540	2	6	71.0696	-50.6333	17.8928
541	541	2	6	-74.3066	32.6043	-25.3212
542	542	2	6	56.0364	6.22707	25.3398
543	543	2	6	69.4027	17.3533	19.4978
544	544	2	6	-12.4718	-23.2585	64.3654
545	545	2	6	-64.5115	-34.5951	-50.9795
546	546	2	6	33.8334	-20.6089	28.903
547	547	2	6	58.7637	58.2697	-52.4347
548	548	2	6	19.715	-56.8761	64.3591
549	549	2	6	25.4083	55.7282	5.44476
550	550	2	6	-55.7885	49.265	-45.2154
551	551	2	6	-62.3859	-9.38174	54.2823
552	552	2	6	5.14237	-8.04504	53.6648
553	553	2	6	61.8839	-19.6796	69.1533
554	554	2	6	-52.8348	-50.7199	-23.8144
555	555	2	6	63.1136	17.9493	-22.7295
556	556	2	6	16.0166	-20.9073	28.2782
557	557	2	6	21.4102	16.6373	28.216
558	558	2	6	59.6752	25.3499	32.9401
559	559	2	6	-7.55471	-52.4416	-29.2724
560	560	2	6	-27.8935	19.5134	-51.6076
561	561	2	6	-58.4543	-14.8445	-46.8861
562	562	2	6	-19.8961	-59.7725	-57.3884
563	563	2	6	59.9406	51.6816	-14.9209
564	564	2	6	-5.6114	-65.571	-7.70305
565	565	2	6	66.8339	57.3931	19.8554
566	566	2	6	-46.5004	-10.046	-8.51011
567	567	2	6	-32.7975	11.4997	56.6454
568	568	2	6	71.6036	21.9865	20.5439
569	569	2	6	73.6568	-19.212	-29.6976
570	570	2	6	19.3184	54.8143	11.1489
571	571	2	6	-64.4578	68.3381	-29.4942
572	572	2	6	9.93078	-73.2329	64.1602
573	573	2	6	-13.3419	-58.3402	30.0268
574	574	2	6	13.1497	47.7799	-6.2049
575	575	2	6	-60.2184	-53.9104	64.3797
576	576	2	6	6.8776	-34.5367	-49.804
577	577	2	6	-62.5036	33.455	16.0795
578	578	2	6	-46.9614	25.7931	66.5853
579	579	2	6	32.5602	33.388	-32.266
580	580	2	6	20.7205	-55.9539	-65.9398
581	581	2	6	54.0729	-29.6596	-20.47
582	582	2	6	55.3022	-57.8798	53.3251
583	583	2	6	-19.1521	65.5037	73.1067
584	584	2	6	6.93747	30.544	61.4864
585	585	2	6	-62.1849	-55.8314	-31.9889
586	586	2	6	-74.5339	21.0174	-5.29642
587	587	2	6	31.2592	11.6027	-12.1806
588	588	2	6	-31.0093	9.40701	-67.4601
589	589	2	6	-6.9632	23.4672	54.9202
590	590	2	6	-28.8903	73.8076	-49.5882
591	591	2	6	-60.0721	-64.2247	11.2597
592	592	2	6	-70.5684	-67.118	-57.8029
593	593	2	6	74.3684	-57.463	8.02327
594	594	2	6	-15.798	13.4893	-10.0617
595	595	2	6	58.9056	-31.2515	-74.459
596	596	2	6	-55.4215	-25.4683	33.9855
597	597	2	6	49.1079	47.5685	-18.5472
598	598	2	6	28.0281	-57.3218	-20.7396
599	599	2	6	66.4783	-26.91	-73.7464
600	600	2	6	64.3497	8.61986	-60.8644
601	601	2	6	-69.4532	-27.4045	-62.496
602	602	2	6	-29.441	-63.4216	58.5823
603	603	2	6	61.4992	24.243	-24.5625
604	604	2	6	7.14859	-19.0215	31.7271
605	605	2	6	5.38815	-10.2873	-21.504
606	606	2	6	7.07882	51.1654	-69.4759
607	607	2	6	29.757	-45.5741	-73.153
608	608	2	6	33.6141	-72.744	71.1967
609	609	2	6	-33.766	-53.6084	-74.2565
610	610	2	6	18.8295	-23.6974	20.9071
611	611	2	6	-47.8203	34.9565	-18.6768
612	612	2	6	-66.8351	-59.1665	64.768
613	613	2	6	-8.3391	27.9123	-18.3307
614	614	2	6	74.3593	-11.4837	31.9734
615	615	2	6	10.4434	-16.2869	-10.5434
616	616	2	6	21.0369	45.7592	-19.5552
617	617	2	6	8.66719	-71.3559	-74.6481
618	618	2	6	-74.3035	-28.6227	-12.9803
619	619	2	6	-15.4578	7.85313	67.9985
620	620	2	6	56.2031	31.9319	-17.6119
621	621	2	6	21.4347	30.2913	65.5755
622	622	2	6	-66.049	-13.7353	-11.5279
623	623	2	6	67.1207	-66.491	-34.4156
624	624	2	6	-6.04624	54.2515	45.5239
625	625	2	6	19.0984	13.1245	5.00213
626	626	2	6	-52.7265	64.5018	72.0218
627	627	2	6	-49.4961	-26.956	-57.4976
628	628	2	6	-46.7529	54.4344	15.6351
629	629	2	6	-10.925	8.72562	5.21062
630	630	2	6	74.9903	-70.7705	-12.5375
631	631	2	6	-29.9167	71.8109	15.6676
632	632	2	6	32.6908	74.9252	-6.08082
633	633	2	6	-62.9824	-60.6608	-72.767
634	634	2	6	-72.1589	-5.20501	-19.1149
635	635	2	6	7.1297	17.2974	14.1321
636	636	2	6	-25.23	-46.2327	-71.5426
637	637	2	6	-29.1289	-72.5523	48.2074
638	638	2	6	-24.4387	-5.08984	-57.7094
639	639	2	6	-28.6279	-71.9371	74.8068
640	640	2	6	10.2776	-27.105	29.6168
641	641	2	6	17.1861	7.52543	-64.0189
642	642	2	6	-57.657	-61.3449	33.2785
643	643	2	6	-6.57485	-46.9897	70.2424
644	644	2	6	33.2203	12.1413	-31.0846
645	645	2	6	5.42762	67.7026	27.7183
646	646	2	6	-10.3234	-28.8624	25.554
647	647	2	6	61.4152	15.032	47.8223
648	648	2	6	19.6352	-23.5101	-20.6522
649	649	2	6	-7.10523	71.4281	25.905
650	650	2	6	-46.4497	67.3727	66.7706
651	651	2	6	48.8396	-71.8864	-52.0835
652	652	2	6	-72.3832	51.8208	17.593
653	653	2	6	-21.2456	18.3348	-32.8529
654	654	2	6	61.8865	-30.4039	59.2016
655	655	2	6	33.7088	69.2313	-62.9434
656	656	2	6	28.8476	15.0595	-54.2576
657	657	2	6	10.4875	51.6474	47.1858
658	658	2	6	-53.8468	20.0254	-72.6918
659	659	2	6	22.3514	-15.4325	-64.5782
660	660	2	6	50.2678	-7.8157	67.2426
661	661	2	6	-8.13915	50.9387	9.57734
662	662	2	6	-60.8917	-67.3959	-46.8274
663	663	2	6	-74.1646	-29.7708	34.683
664	664	2	6	65.2887	60.4254	-73.6421
665	665	2	6	-29.0379	-12.1063	70.9874
666	666	2	6	10.401	-65.755	-20.4451
667	667	2	6	25.8228	64.5128	51.7392
668	668	2	6	17.0654	-19.6263	26.6779
669	669	2	6	-49.3573	-56.6184	45.7862
670	670	2	6	26.1065	48.0961	59.2792
671	671	2	6	-65.9026	-46.4916	-61.3769
672	672	2	6	-57.2029	60.9294	-55.019
673	673	2	6	22.5734	21.0022	-13.2785
674	674	2	6	73.5355	-51.905	54.6152
675	675	2	6	68.5229	68.8602	-27.9222
676	676	2	6	-11.6811	57.373	-52.183
677	677	2	6	-70.6157	54.4949	-14.8717
678	678	2	6	24.2811	66.1336	21.114
679	679	2	6	49.4127	62.9351	10.4746
680	680	2	6	-73.0789	63.4391	29.0977
681	681	2	6	-50.2818	48.3685	54.0787
682	682	2	6	52.2916	-6.62933	49.8271
683	683	2	6	21.4657	-56.5846	-16.0382
684	684	2	6	-63.7244	-61.5723	52.2807
685	685	2	6	73.6487	-33.7553	61.6649
686	686	2	6	-55.2604	-54.308	24.5238
687	687	2	6	49.0207	-64.1745	-30.3622
688	688	2	6	-30.6021	65.2382	59.8725
689	689	2	6	72.1593	-55.988	12.9702
690	690	2	6	-54.1224	72.3805	-8.95111
691	691	2	6	-10.2489	51.9962	-64.7832
692	692	2	6	59.2645	18.3462	-24.5408
693	693	2	6	73.1888	-72.9814	-48.2418
694	694	2	6	-13.1839	61.108	-45.2542
695	695	2	6	-25.8233	-8.12015	-8.68138
696	696	2	6	-11.9608	15.3306	51.0194
697	697	2	6	13.9167	11.711	-33.9317
698	698	2	6	16.0859	-74.5378	-74.0826
699	699	2	6	-7.91786	-59.321	65.1819
700	700	2	6	-65.5717	19.8576	64.7221
701	701	2	6	51.2022	61.9109	58.2208
702	702	2	6	-57.5048	-66.021	27.2571
703	703	2	6	-72.3968	-61.2421	-46.1013
704	704	2	6	-7.06543	25.7786	33.6676
705	705	2	6	30.9838	-62.1822	-27.0018
706	706	2	6	6.00313	31.7345	64.7092
707	707	2	6	52.0714	-28.1796	70.1714
708	708	2	6	57.9888	-65.1497	47.1707
709	709	2	6	58.3309	34.7079	33.5331
710	710	2	6	34.0247	21.8038	15.7539
711	711	2	6	74.4657	29.7329	25.7228
712	712	2	6	51.9022	48.4908	59.6215
713	713	2	6	-61.7489	-34.5746	9.40008
714	714	2	6	51.9187	27.2178	-51.0831
715	715	2	6	6.41225	-17.0477	-62.3739
716	716	2	6	-17.5164	34.7727	-68.2025
717	717	2	6	-53.3522	-64.3569	-14.9939
718	718	2	6	61.3557	51.5359	-57.4608
719	719	2	6	19.3804	17.8461	-34.3614
720	720	2	6	-7.97389	-32.4311	-58.4592
721	721	2	6	-48.8096	9.94226	-64.2893
722	722	2	6	10.3514	-8.19173	-59.2364
723	723	2	6	54.7606	-17.7463	13.5333
724	724	2	6	-5.9488	47.7197	-59.7914
725	725	2	6	20.699	63.3628	5.21475
726	726	2	6	6.05473	27.754	-50.5649
727	727	2	6	-9.95283	47.2812	5.87705
728	728	2	6	62.0733	-61.1499	27.4178
729	729	2	6	-49.4098	-29.9596	67.2098
730	730	2	6	-65.3691	-73.0796	-25.1162
731	731	2	6	6.43914	-28.452	-14.8003
732	732	2	6	33.8018	-48.147	50.6144
733	733	2	6	-57.0583	52.552	28.1565
734	734	2	6	-17.3933	-20.0896	12.0419
735	735	2	6	49.9576	-16.6769	-29.0086
736	736	2	6	66.6211	52.2136	69.619
737	737	2	6	31.1535	66.8445	-69.9627
738	738	2	6	-27.9125	5.68472	62.4834
739	739	2	6	-70.1107	8.57943	65.2165
740	740	2	6	-16.8062	-67.8418	-61.7058
741	741	2	6	-54.829	26.047	-55.7749
742	742	2	6	-63.0572	-8.83865	74.1827
743	743	2	6	34.2136	-73.5609	24.8346
744	744	2	6	58.6527	-20.0119	49.4972
745	745	2	6	-9.97459	-29.2192	-65.192
746	746	2	6	-55.3027	8.28956	-53.5193
747	747	2	6	-13.5605	71.4834	-59.3456
748	748	2	6	-70.3654	46.7014	-52.8214
749	749	2	6	-53.4226	-54.6387	26.8433
750	750	2	6	-71.9845	59.5749	33.2824
751	751	2	6	52.5775	8.40953	15.9351
752	752	2	6	14.7585	68.3976	-10.5677
753	753	2	6	-22.521	-17.5769	-7.713
754	754	2	6	-17.8668	16.9843	70.4227
755	755	2	6	-52.0419	-72.5762	65.9061
756	756	2	6	-13.403	12.1575	-69.4394
757	757	2	6	-10.4495	21.7921	57.262
758	758	2	6	16.7291	48.3696	-56.8752
759	759	2	6	-48.8597	25.6653	-72.2822
760	760	2	6	52.4303	22.4764	-49.5275
761	761	2	6	-34.1374	12.8955	-69.9243
762	762	2	6	-68.447	-62.7734	69.4515
763	763	2	6	-55.3496	59.3576	26.108
764	764	2	6	69.9182	-60.3415	-17.4
765	765	2	6	51.1802	-45.0305	74.305
766	766	2	6	34.1824	-50.5547	-47.8567
767	767	2	6	70.6776	-9.78181	47.1079
768	768	2	6	59.6394	20.6907	-63.0295
769	769	2	6	63.5948	-52.9538	-16.1628
770	770	2	6	-49.9336	25.7142	-66.5759
771	771	2	6	-51.7818	-13.478	-72.6577
772	772	2	6	-32.1232	49.122	58.5225
773	773	2	6	-71.7356	-71.9085	56.8274
774	774	2	6	10.7424	-69.7273	-32.5642
775	775	2	6	8.05952	-48.9248	57.7946
776	776	2	6	25.03	-61.33	-60.6191
777	777	2	6	52.0762	-24.0042	-65.3247
778	778	2	6	-72.429	6.06225	12.7856
779	779	2	6	33.2851	19.4863	-56.1929
780	780	2	6	26.8286	-67.1194	72.9291
781	781	2	6	9.35103	-58.8551	-74.9793
782	782	2	6	-9.82154	31.8874	47.2946
783	783	2	6	8.24623	47.8869	-59.6942
784	784	2	6	17.6717	45.3358	-58.3679
785	785	2	6	21.4119	24.1393	-62.9516
786	786	2	6	31.7102	23.1107	-27.1272
787	787	2	6	-11.0047	-33.403	-62.1233
788	788	2	6	12.8025	73.4255	-49.2428
789	789	2	6	9.73163	6.77656	-28.0978
790	790	2	6	14.7523	-72.2105	-13.953
791	791	2	6	6.56268	74.2932	-26.7069
792	792	2	6	-33.5602	-61.4011	-23.7448
793	793	2	6	64.1115	63.9347	25.1641
794	794	2	6	9.34666	-53.9734	-30.5661
795	795	2	6	57.7368	-10.6769	22.3068
796	796	2	6	-29.2679	63.5346	33.3456
797	797	2	6	70.9407	-33.1572	-63.9814
798	798	2	6	-34.9228	-25.3676	46.4834
799	799	2	6	61.195	-56.2235	-48.3652
800	800	2	6	18.9577	-60.2537	6.89238
801	801	2	6	-59.761	-52.0544	11.1229
802	802	2	6	-10.327	-70.3176	-64.0202
803	803	2	6	-19.5855	56.1632	-32.0508
804	804	2	6	51.1039	45.2154	-58.0533
805	805	2	6	61.234	-69.0888	-12.7004
806	806	2	6	57.3946	-18.2259	67.6583
807	807	2	6	-74.8289	13.4089	10.616
808	808	2	6	5.2028	33.1553	-58.4917
809	809	2	6	7.1218	-62.8114	31.4203
810	810	2	6	-58.3654	47.4001	-50.8357
811	811	2	6	62.0008	27.5633	-16.2874
812	812	2	6	-33.6711	-50.4534	24.6139
813	813	2	6	-48.4371	-54.807	18.8625
814	814	2	6	-58.1475	6.96711	10.5208
815	815	2	6	-52.9764	-55.624	-54.8633
816	816	2	6	32.2264	57.5313	-33.3549
817	817	2	6	-16.403	8.39242	47.1653
818	818	2	6	22.4202	-64.7871	8.42097
819	819	2	6	72.1336	-30.5566	-54.3198
820	820	2	6	74.0573	-13.862	-56.7497
821	821	2	6	18.1974	7.9905	30.2174
822	822	2	6	-47.2818	54.5935	-22.1451
823	823	2	6	-8.75953	24.4999	34.5887
824	824	2	6	-56.2783	24.5073	8.16955
825	825	2	6	-29.0726	15.918	8.49919
826	826	2	6	59.3484	-17.3058	-70.0577
827	827	2	6	55.482	32.1377	53.7143
828	828	2	6	-74.8379	30.195	53.0492
829	829	2	6	-8.69983	53.4453	7.66278
830	830	2	6	27.9648	-13.7437	-70.1803
831	831	2	6	-46.4548	-53.619	34.3196
832	832	2	6	68.1339	-29.8972	71.212
833	833	2	6	29.1381	74.61	-30.4626
834	834	2	6	-64.1648	49.8068	-47.1142
835	835	2	6	59.7491	-67.6322	-45.3329
836	836	2	6	-62.4701	64.8621	14.5127
837	837	2	6	8.83008	-66.2407	12.1207
838	838	2	6	-26.0298	-25.5745	51.5438
839	839	2	6	7.97071	66.6075	9.86348
840	840	2	6	5.07549	-46.7573	-5.4497
841	841	2	6	8.85765	-59.1722	-31.6429
842	842	2	6	19.3572	-47.8938	54.1112
843	843	2	6	54.0243	69.5697	71.6411
844	844	2	6	8.08233	9.19371	21.8416
845	845	2	6	-59.408	63.1639	-12.4342
846	846	2	6	27.3903	-73.0118	17.9978
847	847	2	6	52.9731	7.09274	58.708
848	848	2	6	-17.9514	-57.9718	-12.9588
849	849	2	6	30.8859	7.869	7.24282
850	850	2	6	-48.7738	-25.2594	-70.7496
851	851	2	6	32.9187	-29.6183	52.1368
852	852	2	6	-34.999	54.8529	-14.6695
853	853	2	6	66.8427	-27.5056	-21.5916
854	854	2	6	-5.53765	21.518	21.8825
855	855	2	6	-67.4567	60.5397	52.8787
856	856	2	6	26.6187	-28.4191	-64.2356
857	857	2	6	-18.4954	59.4499	23.0072
858	858	2	6	58.1339	-65.3239	-13.6438
859	859	2	6	-56.0735	-56.725	7.25621
860	860	2	6	-11.724	-13.8909	-14.6063
861	861	2	6	-20.8813	-14.446	60.0164
862	862	2	6	-16.9548	-14.5331	-12.3448
863	863	2	6	61.5363	72.2457	46.0759
864	864	2	6	-25.1112	22.8644	-58.3432
865	865	2	6	-9.34684	-71.631	-74.8933
866	866	2	6	-62.3397	66.5029	-60.2173
867	867	2	6	-52.6226	27.2916	34.6336
868	868	2	6	-60.4324	-55.2573	29.1663
869	869	2	6	10.2968	-8.94563	-5.68686
870	870	2	6	23.2586	59.78	24.4824
871	871	2	6	8.79489	-18.2098	20.7281
872	872	2	6	-21.1292	-32.4075	-48.6679
873	873	2	6	-24.0385	5.63433	-31.0075
874	874	2	6	-33.5356	25.4171	53.0091
875	875	2	6	-6.15823	69.1263	-47.5246
876	876	2	6	23.8682	-22.7819	66.0651
877	877	2	6	-53.4455	67.5149	-18.8805
878	878	2	6	-13.2321	-14.172	17.9466
879	879	2	6	-65.9735	-30.3919	-33.571
880	880	2	6	22.8214	31.3982	67.1571
881	881	2	6	-74.3077	-7.92279	6.21991
882	882	2	6	23.4093	14.7111	-64.1458
883	883	2	6	72.4018	61.1755	49.4109
884	884	2	6	-20.9828	34.3976	-22.2885
885	885	2	6	11.4926	71.2965	-74.4203
886	886	2	6	68.7107	61.3616	-47.8658
887	887	2	6	60.2256	-33.5189	18.9021
888	888	2	6	-29.9463	64.4277	32.9287
889	889	2	6	19.6617	-45.1433	-20.2499
890	890	2	6	-24.9401	-53.9862	-14.5576
891	891	2	6	47.1372	-15.2365	71.6623
892	892	2	6	-5.45351	-68.4835	-9.05169
893	893	2	6	64.65	52.7878	-32.3327
894	894	2	6	11.1855	22.0707	59.1599
895	895	2	6	6.48193	27.6504	51.8706
896	896	2	6	-8.15648	59.7846	-69.8501
897	897	2	6	26.7523	29.8116	61.609
898	898	2	6	19.3655	-71.1284	-68.3772
899	899	2	6	-71.1921	56.0087	-25.4448